LAMMPS data file via write_data, version 21 Feb 2017, timestep = 1000000

10411 atoms
71 atom types
7399 bonds
254 bond types
5512 angles
155 angle types
3375 dihedrals
47 dihedral types
125 impropers
5 improper types

0.0000000000000000e+00 6.0000000000000000e+01 xlo xhi
0.0000000000000000e+00 6.0000000000000000e+01 ylo yhi
0.0000000000000000e+00 6.0000000000000000e+01 zlo zhi

Masses

1 15.9994
2 15.9994
3 15.9994
4 15.9994
5 15.9994
6 14.0067
7 14.0067
8 14.0067
9 14.0067
10 14.0067
11 14.0067
12 12.011
13 12.011
14 13.019
15 14.027
16 15.035
17 16.043
18 14.027
19 12.011
20 1.008
21 1.008
22 1
23 32.06
24 63.546
25 63.546
26 55.847
27 65.37
28 24.305
29 40.08
30 39.948
31 18.9984
32 35.453
33 79.904
34 12.011
35 15.9994
36 22.9898
37 35.453
38 12.011
39 35.453
40 1.008
41 32.06
42 12.011
43 15.9994
44 12.011
45 35.453
46 18.9984
47 12.011
48 13.019
49 15.9994
50 12.011
51 15.9994
52 14.0067
53 15.035
54 126.904
55 35.453
56 10.811
57 78.96
58 1.008
59 35.453
60 79.904
61 15.9994
62 14.0067
63 12.011
64 12.011
65 14.0067
66 14.0067
67 15.9994
68 28.08
69 30.9738
70 15.9994
71 1.008

Pair Coeffs # lj/cut/coul/long/gpu

1 0.305714 2.76007
2 0.412295 2.62585
3 0.203061 2.95484
4 0.252656 2.84916
5 0.155394 3.16565
6 0.152915 3.13647
7 0.0700622 3.5722
8 0.152915 3.13647
9 0.104651 3.34113
10 0.152915 3.13647
11 0.152915 3.13647
12 0.0663015 3.58118
13 0.00167194 6.63949
14 0.0226791 5.01918
15 0.098122 4.07038
16 0.207254 3.74792
17 0.302012 3.70995
18 0.11455 3.95474
19 0.120138 3.74119
20 0.0282937 2.37341
21 0 0
22 0 0
23 0.455513 3.30769
24 2.039 1.5184
25 2.039 1.5184
26 0 0
27 1.107 1.68112
28 0.0747249 1.93323
29 0.121156 2.81311
30 0.238148 3.40984
31 0.10897 2.94006
32 0.300087 3.46982
33 0.69792 3.6508
34 0.243126 3.60124
35 0.131455 3.17694
36 0.00509651 3.12117
37 0.162149 4.09571
38 0.101741 3.40006
39 0.299511 3.44
40 0.0197496 2.20219
41 0.310038 3.55995
42 0.207254 3.74792
43 0.409923 2.63004
44 0.0544087 3.7739
45 0.270582 3.44757
46 0.0828967 3.07717
47 0.0970049 3.3611
48 0.117014 3.91992
49 0.203061 2.95484
50 0.105027 3.74991
51 0.210013 2.95998
52 0.169966 3.25006
53 0.207254 3.74792
54 0.836845 3.84961
55 0.329921 3.26983
56 0.0663015 3.58118
57 0.455513 3.30769
58 0 0
59 0.329921 3.26983
60 0.580843 3.89995
61 0.119432 3.40025
62 0.1399 3.9019
63 0.0734574 3.52053
64 0.245018 2.81144
65 0.142655 4.06776
66 0.219779 3.64529
67 0.119497 3.1
68 0.584786 3.38557
69 0.584786 3.38557
70 0.1553 3.166
71 0 0

Bond Coeffs # harmonic

1 375.239 1
2 446.941 1
3 349.274 1.09
4 1109.29 1.12
5 600.242 1.23
6 500.418 1.25
7 499.732 1.32
8 375.003 1.33
9 448.144 1.33
10 498.877 1.33
11 450.617 1.34
12 502.116 1.34
13 450.906 1.36
14 500.679 1.38
15 399.904 1.39
16 498.726 1.39
17 400.057 1.4
18 399.792 1.43
19 450.132 1.43
20 300.222 1.435
21 449.843 1.47
22 299.976 1.48
23 399.968 1.48
24 450.226 1.48
25 450.108 1.5
26 299.844 1.52
27 400.034 1.53
28 299.851 1.61
29 299.727 1.63
30 205.976 1.78
31 449.816 1.78
32 449.828 1.83
33 300.045 1.87
34 59.9679 1.98
35 60.0382 2
36 500.307 2.04
37 63.0357 2.21
38 554.493 1
39 349.928 1.1
40 599.794 1.758
41 449.829 1.53
42 444.341 1.93799
43 599.679 1.76
44 501.026 1.265
45 448.656 1.35
46 555.129 1.63299
47 350.249 2.33839
48 600.161 2.90283
49 445.884 2.79388
50 443.815 2.91189
51 409.328 2.077
52 600.173 2.87407
53 88.4321 1.1
54 56.1663 1.84
55 513.862 1.01
56 310.707 1.41
57 442.161 1.02
58 239.006 1.46
59 513.862 1.29
60 442.161 0.972
61 812.62 1.22
62 466.061 1.22
63 239.006 1.54
64 179.254 1.56
65 227.055 1.54
66 106.358 1.76
67 131.453 1.69
68 203.155 1.75
69 203.155 1.51
70 143.403 1.57
71 179.254 0.971
72 191.205 1.5
73 262.906 1.45
74 549.713 1.52
75 83.652 1.03
76 191.205 1.74
77 191.205 1.72
78 227.055 1.64
79 203.155 1.67
80 191.205 1.66
81 215.105 1.65
82 513.862 1.31
83 155.354 1.01
84 35.8509 1.89
85 101.577 1.93
86 155.354 1.36
87 167.304 1.79
88 114.723 1.35
89 155.354 1.39
90 203.155 1.38
91 227.055 0.983
92 155.354 1.3
93 418.26 1.08
94 155.354 1.9
95 1314.53 1.16
96 143.403 1.8
97 155.354 1.42
98 478.011 0.984
99 119.503 1.08
100 119.503 1.91
101 418.26 1.03
102 525.813 1.28
103 131.453 1.22
104 143.403 1.11
105 1195.03 1.21
106 466.061 1.07
107 956.023 1.21
108 693.117 1.21
109 87.2371 1.85
110 394.359 1.11
111 109.943 2.09
112 131.453 1.82
113 99.1874 1.96
114 56.1663 1.86
115 167.304 1.21
116 167.304 1.28
117 143.403 1.71
118 131.453 1.6
119 454.111 1.21
120 41.826 1.61
121 131.453 1.94
122 155.354 1.59
123 143.403 2.1
124 119.503 2.12
125 57.3614 2.13
126 203.155 1.26
127 1195.03 1.14
128 191.205 1.23
129 788.719 1.3
130 239.006 1.31
131 59.7514 2.04
132 82.457 1.34
133 621.415 0.938
134 310.707 1.16
135 34.6558 2.07
136 60.9465 1.16
137 93.2122 2.16
138 43.021 2.23
139 23.9006 2.05
140 896.272 1.19
141 728.967 1.47
142 394.359 1.57
143 1195.03 1.18
144 54.9713 1.87
145 1063.58 1.17
146 215.105 1.13
147 59.7514 2.02
148 179.254 1.07
149 250.956 1.14
150 155.354 1.06
151 537.763 1.46
152 812.62 1.17
153 92.0172 2.15
154 239.006 1.04
155 60.9465 1.4
156 1314.53 1.11
157 466.061 1.56
158 752.868 1.49
159 501.912 1.54
160 35.8509 2.17
161 35.8509 2.27
162 669.216 1.45
163 764.818 1.25
164 848.47 1.27
165 561.663 1.16
166 1434.03 1.14
167 501.912 1.17
168 537.763 1.19
169 920.172 1.14
170 227.055 1.24
171 1434.03 1.13
172 89.6272 2.91
173 57.3614 2.24
174 418.26 0.743
175 239.006 1.2
176 111.138 2.33
177 96.7973 2.42
178 83.652 1.32
179 1159.18 1.2
180 1314.53 1.2
181 430.21 1.58
182 53.7763 1.47
183 1.55354 2.77
184 5.13862 2.25
185 100.382 2.18
186 50.1912 1.52
187 93.2122 2.19
188 27.4857 1.48
189 1912.05 1.07
190 8.60421 2.8
191 87.2371 2.52
192 0.669216 2.79
193 812.62 1.16
194 1.79254 2.68
195 406.31 1.59
196 119.503 1.18
197 34.6558 2.54
198 1792.54 1.1
199 824.57 1.29
200 33.4608 2.44
201 107.553 2.41
202 112.333 2.36
203 20.3155 1.43
204 2.27055 2.57
205 19.1205 2.47
206 0.764818 2.71
207 1553.54 1.12
208 3.70459 2.75
209 501.912 1.14
210 0.717017 2.86
211 10.5163 2.64
212 1912.05 0.985
213 1.91205 2.61
214 7.40918 2.62
215 59.7514 2.46
216 3.58509 2.66
217 1.31453 2.72
218 58.5564 1.63
219 573.614 1.12
220 37.0459 2.32
221 16.7304 1.44
222 1553.54 1.16
223 7.17017 2.69
224 10.0382 2.49
225 3.22658 2.92
226 0.82457 2.29
227 9.79924 2.4
228 1.03967 2.37
229 1.55354 2.94
230 5.85564 2.95
231 1.67304 2.96
232 0.0131453 2.56
233 5.25813 2.59
234 15.5354 2.38
235 836.52 1.12
236 1.91205 2.5
237 2.39006 2.3
238 585.564 1.04
239 3.34608 2.99
240 0.967973 2.34
241 1.07553 2.98
242 2.27055 2.74
243 1063.58 1.16
244 812.62 1.5
245 1.31453 2.84
246 0.322658 2.82
247 908.222 1.23
248 466.061 1.05
249 3.34608 2.88
250 1434.03 1.18
251 1673.04 1.15
252 6.33365 2.9
253 0 0
254 100 1

Angle Coeffs # harmonic

1 45.3116 90
2 50.0917 90
3 47.7712 96
4 54.9551 100
5 47.5559 103
6 55.0345 104
7 50.1709 108
8 30.1731 109.5
9 33.8897 109.5
10 40.2609 109.5
11 45.0394 109.5
12 47.694 109.5
13 55.1272 109.5
14 47.635 109.6
15 55.1139 111
16 55.0997 113
17 4.824 115
18 45.0699 115
19 59.7937 115
20 44.8085 116
21 59.7719 116
22 60.1639 117
23 34.88 120
24 39.8095 120
25 45.1871 120
26 47.4278 120
27 50.1166 120
28 59.9756 120
29 69.8346 120
30 60.0726 121
31 60.091 122
32 34.8146 123
33 59.8929 124
34 30.0075 125
35 60.0779 125
36 44.9139 126
37 49.998 126
38 60.166 126
39 50.1189 132
40 47.5187 155
41 28.4971 180
42 45.9951 109.5
43 52.4767 107.57
44 65.472 111.3
45 55.0189 97.4
46 55.0247 106.75
47 47.5019 108.53
48 65.5335 109.5
49 54.9566 107.6
50 47.4817 109.5
51 54.9931 110.3
52 55.0234 111.4
53 60.044 117.2
54 60.0023 121.4
55 48.24 180
56 180.46 109
57 192.229 106
58 145.153 126
59 145.153 96.2
60 156.922 114
61 203.998 119
62 239.306 130
63 298.152 107
64 156.922 134
65 239.306 101
66 286.382 113
67 368.766 134
68 356.997 119
69 333.459 126
70 251.075 89.6
71 380.536 114
72 286.382 135
73 145.153 88.3
74 133.384 60
75 380.536 179
76 251.075 180
77 470.766 178
78 47.0766 59.9
79 47.0766 60.3
80 251.075 124
81 706.149 118
82 117.691 144
83 627.688 123
84 470.766 118
85 333.459 94.8
86 90.2301 175
87 156.922 82.8
88 117.691 77.6
89 239.306 145
90 251.075 50.8
91 380.536 104
92 262.844 84.4
93 215.768 63.3
94 215.768 61
95 298.152 173
96 192.229 173
97 82.384 50.9
98 431.535 127
99 62.7688 67.8
100 156.922 180
101 588.457 118
102 30.1731 110
103 227.537 94.8
104 431.535 173
105 34.5228 78.5
106 70.6149 138
107 70.6149 168
108 156.922 167
109 18.046 149
110 333.459 144
111 356.997 148
112 321.69 144
113 356.997 148
114 321.69 147
115 333.459 144
116 5099.96 60.8
117 1451.53 68
118 298.152 161
119 156.922 155
120 309.921 154
121 215.768 75.3
122 309.921 64.7
123 549.227 173
124 3334.59 45.8
125 863.071 123
126 549.227 123
127 470.766 166
128 380.536 166
129 203.998 139
130 66.6918 161
131 7.45379 44.9
132 25.1075 84.8
133 192.229 161
134 333.459 70.4
135 627.688 173
136 1.92229 51.6
137 21.5768 73.3
138 7.45379 174
139 470.766 132
140 145.153 69.9
141 15.6922 144
142 1922.29 97.9
143 392.305 155
144 588.457 104
145 117.691 149
146 509.996 157
147 286.382 166
148 333.459 89.8
149 392.305 79.1
150 6669.18 45.2
151 470.766 101
152 745.379 125
153 168.691 49.6
154 509.996 112
155 100 109.47

Dihedral Coeffs # harmonic

1 0.638145 -1 1
2 0.81501 -1 1
3 1.18786 -1 1
4 1.40057 -1 1
5 2.2347 -1 1
6 2.2586 -1 1
7 0.666826 1 1
8 1.27868 1 1
9 0.365679 -1 2
10 1.40057 -1 2
11 1.69933 -1 2
12 3.9914 -1 2
13 5.73614 -1 2
14 8.00669 -1 2
15 9.99044 -1 2
16 0 1 2
17 0.0999044 1 2
18 0.499522 1 2
19 0.750478 1 2
20 1.21654 1 2
21 3.9914 1 2
22 0.250956 1 3
23 0.301147 1 3
24 0.310707 1 3
25 0.604685 1 3
26 0.700287 1 3
27 0.762428 1 3
28 0.872371 1 3
29 0.901052 1 3
30 0.932122 1 3
31 0.999044 1 3
32 1.12094 1 3
33 1.30019 1 3
34 1.41491 1 3
35 1.83795 1 3
36 2.06023 1 3
37 2.27055 1 3
38 0 1 4
39 0.239006 -1 6
40 0.239006 1 6
41 0.901052 1 6
42 0.83652 -1 2
43 0.669216 1 3
44 0.167304 -1 6
45 0.0956023 1 6
46 0.239006 -1 3
47 0 1 1

Improper Coeffs # harmonic

1 20.0075 0
2 40.0151 35.2644
3 80.0302 0
4 20.0075 180
5 40.0151 -35.2644

Atoms # full

244 18 20 3.2000000000000001e-02 2.9833266542132780e+01 2.9046781725578768e+01 7.8193371646663614e+00 -1 0 0
7762 2129 70 -8.4760000000000002e-01 2.8054419810359285e+01 2.9014061624543007e+01 3.2914713919978440e+00 0 -1 1
3630 752 71 4.2380000000000001e-01 2.6439415828982131e+01 2.9258015631673548e+01 3.0071457993104973e+00 -1 0 1
6709 1778 70 -8.4760000000000002e-01 2.3073708544636503e+01 2.8370958361948386e+01 1.1003295099819461e+01 1 -1 1
8971 2532 70 -8.4760000000000002e-01 1.7460933369760888e+01 2.9849218964053556e+01 7.5569299338897844e+00 1 0 0
6707 1778 71 4.2380000000000001e-01 2.2981880415933496e+01 2.8403973323937244e+01 1.0011372385624052e+01 1 -1 1
7761 2129 71 4.2380000000000001e-01 2.8639840332190666e+01 2.8654660292646909e+01 4.0219559939499891e+00 0 -1 1
7760 2129 71 4.2380000000000001e-01 2.8567012600966958e+01 2.9022262635616741e+01 2.4289647836573409e+00 0 -1 1
8969 2532 71 4.2380000000000001e-01 1.6648685430158718e+01 2.9599771513127575e+01 7.0274205675504611e+00 1 0 0
417 30 20 3.2000000000000001e-02 2.2224706191330640e+01 2.9590448185607851e+01 4.7213644484173969e+00 1 -1 0
6708 1778 71 4.2380000000000001e-01 2.2823592027248633e+01 2.9258069016978851e+01 1.1388639888828548e+01 1 -1 1
3631 752 70 -8.4760000000000002e-01 2.5550656483908039e+01 2.9683045101820849e+01 2.8187145380644987e+00 -1 0 1
3629 752 71 4.2380000000000001e-01 2.5057920228913677e+01 2.9830959137603958e+01 3.6760582308105696e+00 -1 0 1
9355 2660 70 -8.4760000000000002e-01 2.4355258651819085e+01 2.9861535432311445e+01 7.9116550025000931e+00 0 0 0
7690 2105 70 -8.4760000000000002e-01 2.9876050561491805e+01 2.9900836517265443e+01 1.2456521106464475e+00 1 -1 0
8187 2271 71 4.2380000000000001e-01 2.4349372517711029e+01 2.9849541032623943e+01 1.3695960709709014e+00 0 -2 0
8970 2532 71 4.2380000000000001e-01 1.7254971716621800e+01 2.9771544193352714e+01 8.5291232613410113e+00 1 0 0
8915 2514 71 4.2380000000000001e-01 2.5469215771671905e+01 2.9542356981113276e+01 1.1917319659344315e+01 0 1 1
5725 1450 70 -8.4760000000000002e-01 1.5843155184110534e+01 2.8350710151654035e+01 1.6690966706817704e+01 -1 0 1
4015 880 70 -8.4760000000000002e-01 1.4754187425506959e+01 2.9211432768257037e+01 1.9123944130270182e+01 0 -1 0
5201 1276 71 4.2380000000000001e-01 2.9561213735385856e+01 2.8869762547426888e+01 1.5729584064097264e+01 -1 0 0
5724 1450 71 4.2380000000000001e-01 1.5319362581518106e+01 2.8529019076010073e+01 1.7526537792221973e+01 -1 0 1
7454 2027 71 4.2380000000000001e-01 1.6171364963509092e+01 2.9966516978857939e+01 1.5712839928409673e+01 0 -1 2
3990 872 71 4.2380000000000001e-01 1.7035171497270092e+01 2.9495460412046359e+01 1.7545059670583147e+01 0 0 1
3991 872 70 -8.4760000000000002e-01 1.7940070062093096e+01 2.9887161674431496e+01 1.7724542339409098e+01 0 0 1
871 63 64 1.5800000000000000e-01 1.9419653172218709e+01 2.9255695162474872e+01 2.3724587725025518e+01 0 0 1
4014 880 71 4.2380000000000001e-01 1.5181406645919859e+01 2.8679883340168505e+01 1.9857899185328371e+01 0 -1 0
5723 1450 71 4.2380000000000001e-01 1.5684510841264313e+01 2.7409921393274256e+01 1.6388233745330393e+01 -1 0 1
877 63 67 -6.3100000000000001e-01 1.8235247964523662e+01 2.9542196263309478e+01 2.2924864195604723e+01 0 0 1
879 63 20 3.2000000000000001e-02 1.9815243861027891e+01 2.8293074189209694e+01 2.3375499191192283e+01 0 0 1
1517 109 20 3.2000000000000001e-02 8.1696083018113974e+00 2.9914430874688026e+01 1.6608687303714976e+01 1 -1 1
3989 872 71 4.2380000000000001e-01 1.8582497400613764e+01 2.9590497585836889e+01 1.7014197774366767e+01 0 0 1
943 68 20 3.2000000000000001e-02 8.5381201244938616e+00 2.8449723891524897e+01 3.3137648777227938e+01 0 0 0
221 16 20 3.2000000000000001e-02 6.5048357229132547e-01 2.9318233329625361e+01 2.7412444721387359e+01 0 0 0
3681 769 71 4.2380000000000001e-01 7.9211822384802835e+00 2.9224843206852118e+01 2.9260176273343976e+01 -1 -1 0
3682 769 70 -8.4760000000000002e-01 7.4415102854846387e+00 2.9820466986256392e+01 2.8611475580999262e+01 -1 -1 0
3680 769 71 4.2380000000000001e-01 6.4801323879248098e+00 2.9544527568950528e+01 2.8556219256171691e+01 -1 -1 0
5094 1240 71 4.2380000000000001e-01 4.5597214981584910e+00 2.9375606110125140e+01 3.0053786085229557e+01 0 0 0
939 68 64 1.5800000000000000e-01 8.2176173817067362e+00 2.9411375050329447e+01 3.2817837357513611e+01 0 0 0
944 68 20 3.2000000000000001e-02 7.2774825946349724e+00 2.9190746110590872e+01 3.2425739825028906e+01 0 0 0
9870 2832 71 4.2380000000000001e-01 2.8700816251341614e+01 2.9252532677863851e+01 3.3467775381114251e+01 2 0 2
5093 1240 71 4.2380000000000001e-01 3.9531575783118948e+00 2.9111832670522482e+01 2.8564900687815150e+01 0 0 0
5095 1240 70 -8.4760000000000002e-01 4.7948049099939531e+00 2.9194002520582405e+01 2.9101607577905369e+01 0 0 0
7103 1910 71 4.2380000000000001e-01 1.3058109693464317e+00 2.9687644643990925e+01 3.1556110530833276e+01 1 0 0
4517 1048 71 4.2380000000000001e-01 2.5422764610456876e+00 2.9311369474513718e+01 3.3907833584516062e+01 -1 0 0
4518 1048 71 4.2380000000000001e-01 9.1719242247381938e-01 2.9262766707550245e+01 3.4075007066014948e+01 -1 0 0
4519 1048 70 -8.4760000000000002e-01 1.6776515125604814e+00 2.9085550622185441e+01 3.3450924808853244e+01 -1 0 0
874 63 20 3.2000000000000001e-02 2.1892122020505564e+01 2.9443173453172680e+01 2.4610651647570080e+01 0 0 1
945 68 67 -6.1099999999999999e-01 9.1427439395664294e+00 2.9180662057575173e+01 3.0473614469326716e+01 0 0 0
4083 903 71 4.2380000000000001e-01 1.4967640967490066e+01 2.8911151715154233e+01 3.3976412280849146e+01 -1 0 0
951 68 21 3.9800000000000002e-01 1.0016951070862845e+01 2.9284095083870440e+01 2.9962159910210367e+01 0 0 0
4084 903 70 -8.4760000000000002e-01 1.4737732695522187e+01 2.9845480334333629e+01 3.3724440969991520e+01 -1 0 0
878 63 20 3.2000000000000001e-02 1.9275337567830643e+01 2.9280534149949407e+01 2.4853699479710979e+01 0 0 1
946 68 20 3.1000000000000000e-02 1.0136351963293293e+01 2.9986232158812847e+01 3.2183127284056560e+01 0 0 0
940 68 12 1.6600000000000001e-01 9.1344304888308674e+00 2.9974743266367721e+01 3.1705660781752027e+01 0 0 0
5425 1350 70 -8.4760000000000002e-01 2.5399052295700404e+01 2.9778196444040208e+01 2.8696627462476034e+01 0 -1 0
5423 1350 71 4.2380000000000001e-01 2.4418547923754058e+01 2.9830474470734110e+01 2.8517645643393948e+01 0 -1 0
9824 2817 71 4.2380000000000001e-01 1.2313809573245463e+01 2.9572237078348213e+01 3.0163591213583793e+01 1 0 1
9869 2832 71 4.2380000000000001e-01 2.7837233679552387e+01 2.9860619966671656e+01 3.2219799242432480e+01 2 0 2
1986 204 71 4.2380000000000001e-01 2.9379944998150560e+01 2.9938898114783733e+01 3.0330995149811969e+01 0 0 -1
7951 2192 70 -8.4760000000000002e-01 1.5941832869536864e+01 2.9044159468696364e+01 3.9665055857513465e+01 0 -1 0
9501 2709 71 4.2380000000000001e-01 2.1822467468516184e+01 2.9513301156967319e+01 4.1245006459403122e+01 0 0 1
3694 773 70 -8.4760000000000002e-01 1.2507592532352654e+00 2.7999414594937637e+01 4.1609019493832911e+01 1 0 1
9260 2629 71 4.2380000000000001e-01 7.1618579943561826e+00 2.8938886896630496e+01 3.7395551814949471e+01 0 -1 1
2175 267 71 4.2380000000000001e-01 3.4688934025434479e-02 2.5832359325023916e+01 4.4680456914231499e+01 0 0 -1
1595 114 21 3.9800000000000002e-01 9.9464596447460600e+00 2.9003272310063075e+01 4.5175740311382718e+01 1 0 -1
2621 416 71 4.2380000000000001e-01 3.1129771773016532e+00 2.8703735678640523e+01 4.1657234247806677e+01 1 -1 1
2622 416 71 4.2380000000000001e-01 3.5443863939255675e+00 2.8550560367742996e+01 4.3219996089509650e+01 1 -1 1
5506 1377 70 -8.4760000000000002e-01 3.3491615217099420e+00 2.8909858049996767e+01 4.6929236602135916e+01 0 1 -1
5505 1377 71 4.2380000000000001e-01 2.9588477531107227e+00 2.8848878178381604e+01 4.6005994584092853e+01 0 1 -1
2623 416 70 -8.4760000000000002e-01 3.7765227531232646e+00 2.8981319119549255e+01 4.2350305600487786e+01 1 -1 1
3692 773 71 4.2380000000000001e-01 4.0764629260344071e-01 2.7933729229924086e+01 4.1070861866118349e+01 1 0 1
5504 1377 71 4.2380000000000001e-01 3.4694664753051843e+00 2.7989151422707767e+01 4.7299391902834408e+01 0 1 -1
7950 2192 71 4.2380000000000001e-01 1.5798324010503061e+01 2.9323000896508880e+01 4.0613963312429767e+01 0 -1 0
3660 762 71 4.2380000000000001e-01 1.9035003440122487e+00 2.9424019228597725e+01 4.4083080788155527e+01 0 1 1
9262 2629 70 -8.4760000000000002e-01 7.6714841562297993e+00 2.9790983724675854e+01 3.7290770587971217e+01 0 -1 1
506 37 12 1.6600000000000001e-01 2.3558409166881965e+01 2.9929345233016733e+01 4.5121647215717701e+01 0 0 -1
3659 762 71 4.2380000000000001e-01 1.4414513465482519e+00 2.8020741650150317e+01 4.4780097573228453e+01 0 1 1
3661 762 70 -8.4760000000000002e-01 2.2217858906947470e+00 2.8618380249287505e+01 4.4579533930380173e+01 0 1 1
9009 2545 71 4.2380000000000001e-01 1.3831602421027599e+01 2.9879958207627652e+01 4.1910782831185536e+01 0 1 -1
508 37 67 -6.3100000000000001e-01 2.4070145846369169e+01 2.9262124114839118e+01 4.7395284051259829e+01 0 0 -1
6825 1817 71 4.2380000000000001e-01 2.8433761475823580e+01 2.9831800996475842e+01 4.2738843161346665e+01 0 -2 -1
8510 2379 71 4.2380000000000001e-01 1.1884195724911894e+01 2.9823107613553297e+01 4.1115489557964786e+01 0 0 0
8255 2294 71 4.2380000000000001e-01 1.6156010887112195e+01 2.9216113358809991e+01 4.6948603404460201e+01 1 0 0
9500 2709 71 4.2380000000000001e-01 2.3392987701126906e+01 2.9191481207486042e+01 4.1533273737839409e+01 0 0 1
2655 427 71 4.2380000000000001e-01 8.9350491515081920e+00 2.9280824471351920e+01 4.2950226139544675e+01 -1 -1 0
4616 1081 71 4.2380000000000001e-01 1.8362060387139657e+01 2.7407003045448732e+01 4.4052456117428953e+01 0 0 1
1589 114 67 -6.1099999999999999e-01 1.0505433555639621e+01 2.8309646615753625e+01 4.4941277645174786e+01 1 0 -1
505 37 64 1.5800000000000000e-01 2.3148908616159414e+01 2.9944037254271020e+01 4.6532458547548323e+01 0 0 -1
8257 2294 70 -8.4760000000000002e-01 1.6531843787669150e+01 2.9541670141459125e+01 4.7816236604067363e+01 1 0 0
8598 2408 71 4.2380000000000001e-01 1.3953816877925352e+01 2.7046355191960096e+01 4.7281153953118789e+01 0 -1 -1
9052 2559 70 -8.4760000000000002e-01 1.6035405190449865e+01 2.9147256046990854e+01 4.5214472226470185e+01 1 0 0
1590 114 20 3.1000000000000000e-02 1.1720800654907871e+01 2.8075302575195920e+01 4.6654674089540897e+01 1 0 -1
1583 114 64 1.5800000000000000e-01 1.2248649167895747e+01 2.9939742236836821e+01 4.5552549034492131e+01 1 0 -1
1584 114 12 1.6600000000000001e-01 1.1794608231505018e+01 2.8413434356307626e+01 4.5544972848359386e+01 1 0 -1
1593 114 20 3.2000000000000001e-02 1.2240691944612989e+01 2.6693603325798385e+01 4.4491074323726565e+01 1 0 -1
1591 114 67 -6.3100000000000001e-01 1.3958721468376092e+01 2.7355135739107986e+01 4.5629319030546895e+01 1 0 -1
1585 114 64 1.5800000000000000e-01 1.2806554050089701e+01 2.7560741010115084e+01 4.4761329953971192e+01 1 0 -1
1594 114 58 4.1699999999999998e-01 1.4730666987488572e+01 2.7969505146452178e+01 4.5322437885773041e+01 1 0 -1
1592 114 20 3.2000000000000001e-02 1.3050183331673324e+01 2.8085942320353045e+01 4.3829964240656032e+01 1 0 -1
4617 1081 71 4.2380000000000001e-01 1.8748141211435652e+01 2.8738652519348804e+01 4.3192318378132377e+01 0 0 1
7350 1992 71 4.2380000000000001e-01 1.8495590227369284e+01 2.8553809975163631e+01 4.1127085451765474e+01 -1 -1 -1
9502 2709 70 -8.4760000000000002e-01 2.2559573782617761e+01 2.9587703357870378e+01 4.1915443069278759e+01 0 0 1
4618 1081 70 -8.4760000000000002e-01 1.8476162578949015e+01 2.8402916526525377e+01 4.4091920614856093e+01 0 0 1
2176 267 70 -8.4760000000000002e-01 5.8912119508631518e-02 2.6500321305253056e+01 4.3934594113689514e+01 0 0 -1
7351 1992 70 -8.4760000000000002e-01 1.8607890920665465e+01 2.9454393327820480e+01 4.1540966789494270e+01 -1 -1 -1
518 37 21 4.1699999999999998e-01 2.4998514372787636e+01 2.9381865772790654e+01 4.6953718860793629e+01 0 0 -1
512 37 20 3.1000000000000000e-02 2.3683264825002269e+01 2.8877023999533701e+01 4.4802491456791834e+01 0 0 -1
7949 2192 71 4.2380000000000001e-01 1.5174756069980834e+01 2.8484021728851761e+01 3.9361555746003908e+01 0 -1 0
9050 2559 71 4.2380000000000001e-01 1.6957297544728640e+01 2.8920004765924528e+01 4.4895226250281318e+01 1 0 0
509 37 20 3.2000000000000001e-02 2.2245314953309254e+01 2.9412497832728647e+01 4.6710268059698848e+01 0 0 -1
8512 2379 70 -8.4760000000000002e-01 1.1704733087858822e+01 2.9492383662230679e+01 4.2045192675102761e+01 0 0 0
8511 2379 71 4.2380000000000001e-01 1.0769747204140533e+01 2.9727151568691653e+01 4.2304266822340082e+01 0 0 0
9010 2545 70 -8.4760000000000002e-01 1.4818626903505438e+01 2.9836591584066813e+01 4.2079483294229298e+01 0 1 -1
3693 773 71 4.2380000000000001e-01 1.1402414752080481e+00 2.7505696592374374e+01 4.2467770687886102e+01 1 0 1
9261 2629 71 4.2380000000000001e-01 8.1834929458778412e+00 2.9978306404165721e+01 3.8130923942736487e+01 0 -1 1
7466 2031 71 4.2380000000000001e-01 1.9340191686422109e+01 2.9739110570051132e+01 4.5262623633233360e+01 1 -1 0
6066 1564 71 4.2380000000000001e-01 1.5110734389073716e+01 2.9453006038678012e+01 5.2973217891972602e+01 1 0 -1
9941 2856 71 4.2380000000000001e-01 2.1218995372123928e+00 2.9696381869722138e+01 5.2989114538837200e+01 1 0 -1
7897 2174 70 -8.4760000000000002e-01 2.8720616964220735e+01 2.9678268687317338e+01 5.7505602677350247e+01 1 0 0
9995 2874 71 4.2380000000000001e-01 4.9993730685576854e-01 2.8800290255458464e+01 5.4372673564038188e+01 1 0 1
8597 2408 71 4.2380000000000001e-01 1.2641420856174985e+01 2.6521872609354627e+01 4.8099452320163721e+01 0 -1 -1
6269 1632 71 4.2380000000000001e-01 1.2364874451541480e+01 2.9962374496535780e+01 5.1739018266763814e+01 1 -1 0
915 66 20 3.2000000000000001e-02 2.0394576785573971e+01 2.8140565926068998e+01 5.3084003509822786e+01 0 0 0
914 66 67 -6.3100000000000001e-01 2.1793794194434536e+01 2.9511012142503812e+01 5.3718156104361704e+01 0 0 0
3034 553 70 -8.4760000000000002e-01 1.7632721017760307e+01 2.7580669736125760e+01 5.1976789418899337e+01 -1 -1 0
9997 2874 70 -8.4760000000000002e-01 1.3237999064559876e+00 2.9277817378908164e+01 5.4687817955647994e+01 1 0 1
8256 2294 71 4.2380000000000001e-01 1.5828009243567662e+01 2.9494409398724581e+01 4.8526812729684238e+01 1 0 0
3032 553 71 4.2380000000000001e-01 1.8363065377161064e+01 2.8127070674593003e+01 5.1569170185334606e+01 -1 -1 0
8599 2408 70 -8.4760000000000002e-01 1.3510913086978771e+01 2.7016059262068492e+01 4.8173622863529445e+01 0 -1 -1
6067 1564 70 -8.4760000000000002e-01 1.5066558914621973e+01 2.8886908187695841e+01 5.2151145581966361e+01 1 0 -1
5216 1281 71 4.2380000000000001e-01 1.4668973382606067e+01 2.8862693375856338e+01 5.0385589253509721e+01 0 0 0
6065 1564 71 4.2380000000000001e-01 1.5918797578637474e+01 2.8371907093138734e+01 5.2062933092543837e+01 1 0 -1
5217 1281 71 4.2380000000000001e-01 1.4227791677701711e+01 2.8524733479932905e+01 4.8848290105400302e+01 0 0 0
5218 1281 70 -8.4760000000000002e-01 1.4384872172489201e+01 2.9255938241432812e+01 4.9514978106649075e+01 0 0 0
7895 2174 71 4.2380000000000001e-01 2.8288300477257351e+01 2.8805338092041040e+01 5.7745322216189074e+01 1 0 0
3033 553 71 4.2380000000000001e-01 1.7580493611433873e+01 2.6695653485216031e+01 5.1510280083666359e+01 -1 -1 0
917 66 67 -6.1099999999999999e-01 1.9287875472244046e+01 2.9433414819640099e+01 5.1069957175359676e+01 0 0 0
916 66 20 3.2000000000000001e-02 1.9717760183719033e+01 2.9693259080545012e+01 5.3488628600484184e+01 0 0 0
918 66 20 3.1000000000000000e-02 2.1374872862219746e+01 2.9278010210736120e+01 5.1024607397069403e+01 0 0 0
9996 2874 71 4.2380000000000001e-01 1.2013334804906914e+00 2.9555825660535291e+01 5.5640559430909093e+01 1 0 1
4845 1157 71 4.2380000000000001e-01 2.4105978054331128e+01 2.8895505573856077e+01 5.8968631888061481e+01 -1 1 -2
912 66 12 1.6600000000000001e-01 2.0574681987184071e+01 2.9796709824893725e+01 5.1536170072623193e+01 0 0 0
8481 2369 71 4.2380000000000001e-01 2.0777537136934303e+01 2.8552509318999238e+01 5.6777211099968959e+01 0 0 -2
911 66 64 1.5800000000000000e-01 2.0580072144725570e+01 2.9257936708569023e+01 5.2980935326155503e+01 0 0 0
4846 1157 70 -8.4760000000000002e-01 2.3881253789092057e+01 2.8634112633972801e+01 5.8026297026538131e+01 -1 1 -2
4844 1157 71 4.2380000000000001e-01 2.4665584468202017e+01 2.8819565365981259e+01 5.7431052058128998e+01 -1 1 -2
924 66 21 4.1699999999999998e-01 2.1631535373589994e+01 2.9153114725250152e+01 5.4637613355112002e+01 0 0 0
8482 2369 70 -8.4760000000000002e-01 2.1463547388506434e+01 2.8979857796573050e+01 5.6187321818297612e+01 0 0 -2
8480 2369 71 4.2380000000000001e-01 2.2377215147357646e+01 2.8773638917384233e+01 5.6530048717624119e+01 0 0 -2
3641 756 71 4.2380000000000001e-01 1.2615619016490388e+01 2.9634881586556769e+01 4.9041527295682535e+01 0 0 -1
9942 2856 71 4.2380000000000001e-01 1.2640043018025422e+00 2.9902961509140013e+01 5.1608256417160149e+01 1 0 -1
5092 1239 70 -8.4760000000000002e-01 7.2647400205876513e+00 2.9796596244232386e+01 4.8067474235706747e+01 1 0 -1
2302 309 70 -8.4760000000000002e-01 5.3207945701054165e+00 3.6458534746761160e+01 7.9112957450563997e+00 0 0 0
2301 309 71 4.2380000000000001e-01 4.7171025764777843e+00 3.5841211605958833e+01 7.4097161806573544e+00 0 0 0
2300 309 71 4.2380000000000001e-01 5.2733279841057010e+00 3.7372985520413792e+01 7.5149576775120392e+00 0 0 0
4044 890 71 4.2380000000000001e-01 2.3734552952338652e+00 3.7570714985364106e+01 4.9832082179973485e+00 0 0 1
4045 890 70 -8.4760000000000002e-01 1.7765054945681578e+00 3.6866990900737875e+01 5.3702206151217169e+00 0 0 1
3625 750 70 -8.4760000000000002e-01 6.2987211835982810e+00 3.2182930895286297e+01 7.7303957236143255e+00 0 1 1
3623 750 71 4.2380000000000001e-01 6.8236958321333443e+00 3.2942506587463193e+01 7.3570188151352047e+00 0 1 1
5482 1369 70 -8.4760000000000002e-01 8.2714299336915840e+00 3.8713282926319117e+01 8.3201156154834486e+00 0 0 1
5480 1369 71 4.2380000000000001e-01 7.4450685039120996e+00 3.8821900264869527e+01 7.7691499620733042e+00 0 0 1
2443 356 70 -8.4760000000000002e-01 6.8777876605700783e+00 3.5918952819823446e+01 1.0139147493545439e+01 -1 0 0
1105 79 21 3.9800000000000002e-01 4.2379388022411142e+00 3.9389628247430721e+01 4.3341490136086556e+00 0 -1 0
2442 356 71 4.2380000000000001e-01 6.3307388511349654e+00 3.6204619099233732e+01 9.3531218466708843e+00 -1 0 0
1099 79 67 -6.1099999999999999e-01 3.3858734678336124e+00 3.9144704980496989e+01 4.7086315500911295e+00 0 -1 0
9932 2853 71 4.2380000000000001e-01 9.1157741169240598e+00 3.4053953720249972e+01 6.9869327818272424e+00 0 0 1
4819 1148 70 -8.4760000000000002e-01 7.5860274979945634e+00 3.6301069434751135e+01 5.9655993001506014e+00 2 0 -1
4817 1148 71 4.2380000000000001e-01 7.0374040433017502e+00 3.6396127352853448e+01 6.7953041573283874e+00 2 0 -1
1957 194 70 -8.4760000000000002e-01 5.6807285242813634e+00 3.4435111720237380e+01 1.0200081914014703e+00 1 0 0
2992 539 70 -8.4760000000000002e-01 7.4960140969390805e+00 3.3004516126645939e+01 4.3479231536587006e+00 0 -1 0
2941 522 70 -8.4760000000000002e-01 3.1089308631355377e+00 3.4081314604498893e+01 2.1209128121107055e+00 1 0 1
5117 1248 71 4.2380000000000001e-01 6.7128449815854747e+00 3.5819865385703203e+01 9.2130593790787918e-01 1 1 0
7692 2106 71 4.2380000000000001e-01 2.9100909320981838e+00 3.4339947191610023e+01 6.5147608165504822e+00 1 0 1
4818 1148 71 4.2380000000000001e-01 7.9372600137903531e+00 3.5367910809542998e+01 5.8997441721260566e+00 2 0 -1
5119 1248 70 -8.4760000000000002e-01 7.3426246020639008e+00 3.6587212594243908e+01 1.0664401250681879e+00 1 1 0
3976 867 70 -8.4760000000000002e-01 5.1494462837936279e+00 4.0132230018819406e+01 1.1257204071869920e+01 0 0 0
5118 1248 71 4.2380000000000001e-01 7.8907537657457469e+00 3.6412873850442956e+01 1.8834460527665757e+00 1 1 0
3038 555 71 4.2380000000000001e-01 4.4488675695701225e+00 3.7692610037765419e+01 2.4562010020614600e+00 0 -1 1
7693 2106 70 -8.4760000000000002e-01 3.5522542634908998e+00 3.5108729690484203e+01 6.5293536233055205e+00 1 0 1