LAMMPS data file via write_data, version 21 Feb 2017, timestep = 2000000

10411 atoms
71 atom types
7399 bonds
254 bond types
5512 angles
155 angle types
3375 dihedrals
47 dihedral types
125 impropers
5 improper types

6.6542193496358024e+00 5.3345780650348800e+01 xlo xhi
6.6542193496358024e+00 5.3345780650348800e+01 ylo yhi
6.6542193496358024e+00 5.3345780650348800e+01 zlo zhi

Masses

1 15.9994
2 15.9994
3 15.9994
4 15.9994
5 15.9994
6 14.0067
7 14.0067
8 14.0067
9 14.0067
10 14.0067
11 14.0067
12 12.011
13 12.011
14 13.019
15 14.027
16 15.035
17 16.043
18 14.027
19 12.011
20 1.008
21 1.008
22 1
23 32.06
24 63.546
25 63.546
26 55.847
27 65.37
28 24.305
29 40.08
30 39.948
31 18.9984
32 35.453
33 79.904
34 12.011
35 15.9994
36 22.9898
37 35.453
38 12.011
39 35.453
40 1.008
41 32.06
42 12.011
43 15.9994
44 12.011
45 35.453
46 18.9984
47 12.011
48 13.019
49 15.9994
50 12.011
51 15.9994
52 14.0067
53 15.035
54 126.904
55 35.453
56 10.811
57 78.96
58 1.008
59 35.453
60 79.904
61 15.9994
62 14.0067
63 12.011
64 12.011
65 14.0067
66 14.0067
67 15.9994
68 28.08
69 30.9738
70 15.9994
71 1.008

Pair Coeffs # lj/cut/coul/long/gpu

1 0.305714 2.76007
2 0.412295 2.62585
3 0.203061 2.95484
4 0.252656 2.84916
5 0.155394 3.16565
6 0.152915 3.13647
7 0.0700622 3.5722
8 0.152915 3.13647
9 0.104651 3.34113
10 0.152915 3.13647
11 0.152915 3.13647
12 0.0663015 3.58118
13 0.00167194 6.63949
14 0.0226791 5.01918
15 0.098122 4.07038
16 0.207254 3.74792
17 0.302012 3.70995
18 0.11455 3.95474
19 0.120138 3.74119
20 0.0282937 2.37341
21 0 0
22 0 0
23 0.455513 3.30769
24 2.039 1.5184
25 2.039 1.5184
26 0 0
27 1.107 1.68112
28 0.0747249 1.93323
29 0.121156 2.81311
30 0.238148 3.40984
31 0.10897 2.94006
32 0.300087 3.46982
33 0.69792 3.6508
34 0.243126 3.60124
35 0.131455 3.17694
36 0.00509651 3.12117
37 0.162149 4.09571
38 0.101741 3.40006
39 0.299511 3.44
40 0.0197496 2.20219
41 0.310038 3.55995
42 0.207254 3.74792
43 0.409923 2.63004
44 0.0544087 3.7739
45 0.270582 3.44757
46 0.0828967 3.07717
47 0.0970049 3.3611
48 0.117014 3.91992
49 0.203061 2.95484
50 0.105027 3.74991
51 0.210013 2.95998
52 0.169966 3.25006
53 0.207254 3.74792
54 0.836845 3.84961
55 0.329921 3.26983
56 0.0663015 3.58118
57 0.455513 3.30769
58 0 0
59 0.329921 3.26983
60 0.580843 3.89995
61 0.119432 3.40025
62 0.1399 3.9019
63 0.0734574 3.52053
64 0.245018 2.81144
65 0.142655 4.06776
66 0.219779 3.64529
67 0.119497 3.1
68 0.584786 3.38557
69 0.584786 3.38557
70 0.1553 3.166
71 0 0

Bond Coeffs # harmonic

1 375.239 1
2 446.941 1
3 349.274 1.09
4 1109.29 1.12
5 600.242 1.23
6 500.418 1.25
7 499.732 1.32
8 375.003 1.33
9 448.144 1.33
10 498.877 1.33
11 450.617 1.34
12 502.116 1.34
13 450.906 1.36
14 500.679 1.38
15 399.904 1.39
16 498.726 1.39
17 400.057 1.4
18 399.792 1.43
19 450.132 1.43
20 300.222 1.435
21 449.843 1.47
22 299.976 1.48
23 399.968 1.48
24 450.226 1.48
25 450.108 1.5
26 299.844 1.52
27 400.034 1.53
28 299.851 1.61
29 299.727 1.63
30 205.976 1.78
31 449.816 1.78
32 449.828 1.83
33 300.045 1.87
34 59.9679 1.98
35 60.0382 2
36 500.307 2.04
37 63.0357 2.21
38 554.493 1
39 349.928 1.1
40 599.794 1.758
41 449.829 1.53
42 444.341 1.93799
43 599.679 1.76
44 501.026 1.265
45 448.656 1.35
46 555.129 1.63299
47 350.249 2.33839
48 600.161 2.90283
49 445.884 2.79388
50 443.815 2.91189
51 409.328 2.077
52 600.173 2.87407
53 88.4321 1.1
54 56.1663 1.84
55 513.862 1.01
56 310.707 1.41
57 442.161 1.02
58 239.006 1.46
59 513.862 1.29
60 442.161 0.972
61 812.62 1.22
62 466.061 1.22
63 239.006 1.54
64 179.254 1.56
65 227.055 1.54
66 106.358 1.76
67 131.453 1.69
68 203.155 1.75
69 203.155 1.51
70 143.403 1.57
71 179.254 0.971
72 191.205 1.5
73 262.906 1.45
74 549.713 1.52
75 83.652 1.03
76 191.205 1.74
77 191.205 1.72
78 227.055 1.64
79 203.155 1.67
80 191.205 1.66
81 215.105 1.65
82 513.862 1.31
83 155.354 1.01
84 35.8509 1.89
85 101.577 1.93
86 155.354 1.36
87 167.304 1.79
88 114.723 1.35
89 155.354 1.39
90 203.155 1.38
91 227.055 0.983
92 155.354 1.3
93 418.26 1.08
94 155.354 1.9
95 1314.53 1.16
96 143.403 1.8
97 155.354 1.42
98 478.011 0.984
99 119.503 1.08
100 119.503 1.91
101 418.26 1.03
102 525.813 1.28
103 131.453 1.22
104 143.403 1.11
105 1195.03 1.21
106 466.061 1.07
107 956.023 1.21
108 693.117 1.21
109 87.2371 1.85
110 394.359 1.11
111 109.943 2.09
112 131.453 1.82
113 99.1874 1.96
114 56.1663 1.86
115 167.304 1.21
116 167.304 1.28
117 143.403 1.71
118 131.453 1.6
119 454.111 1.21
120 41.826 1.61
121 131.453 1.94
122 155.354 1.59
123 143.403 2.1
124 119.503 2.12
125 57.3614 2.13
126 203.155 1.26
127 1195.03 1.14
128 191.205 1.23
129 788.719 1.3
130 239.006 1.31
131 59.7514 2.04
132 82.457 1.34
133 621.415 0.938
134 310.707 1.16
135 34.6558 2.07
136 60.9465 1.16
137 93.2122 2.16
138 43.021 2.23
139 23.9006 2.05
140 896.272 1.19
141 728.967 1.47
142 394.359 1.57
143 1195.03 1.18
144 54.9713 1.87
145 1063.58 1.17
146 215.105 1.13
147 59.7514 2.02
148 179.254 1.07
149 250.956 1.14
150 155.354 1.06
151 537.763 1.46
152 812.62 1.17
153 92.0172 2.15
154 239.006 1.04
155 60.9465 1.4
156 1314.53 1.11
157 466.061 1.56
158 752.868 1.49
159 501.912 1.54
160 35.8509 2.17
161 35.8509 2.27
162 669.216 1.45
163 764.818 1.25
164 848.47 1.27
165 561.663 1.16
166 1434.03 1.14
167 501.912 1.17
168 537.763 1.19
169 920.172 1.14
170 227.055 1.24
171 1434.03 1.13
172 89.6272 2.91
173 57.3614 2.24
174 418.26 0.743
175 239.006 1.2
176 111.138 2.33
177 96.7973 2.42
178 83.652 1.32
179 1159.18 1.2
180 1314.53 1.2
181 430.21 1.58
182 53.7763 1.47
183 1.55354 2.77
184 5.13862 2.25
185 100.382 2.18
186 50.1912 1.52
187 93.2122 2.19
188 27.4857 1.48
189 1912.05 1.07
190 8.60421 2.8
191 87.2371 2.52
192 0.669216 2.79
193 812.62 1.16
194 1.79254 2.68
195 406.31 1.59
196 119.503 1.18
197 34.6558 2.54
198 1792.54 1.1
199 824.57 1.29
200 33.4608 2.44
201 107.553 2.41
202 112.333 2.36
203 20.3155 1.43
204 2.27055 2.57
205 19.1205 2.47
206 0.764818 2.71
207 1553.54 1.12
208 3.70459 2.75
209 501.912 1.14
210 0.717017 2.86
211 10.5163 2.64
212 1912.05 0.985
213 1.91205 2.61
214 7.40918 2.62
215 59.7514 2.46
216 3.58509 2.66
217 1.31453 2.72
218 58.5564 1.63
219 573.614 1.12
220 37.0459 2.32
221 16.7304 1.44
222 1553.54 1.16
223 7.17017 2.69
224 10.0382 2.49
225 3.22658 2.92
226 0.82457 2.29
227 9.79924 2.4
228 1.03967 2.37
229 1.55354 2.94
230 5.85564 2.95
231 1.67304 2.96
232 0.0131453 2.56
233 5.25813 2.59
234 15.5354 2.38
235 836.52 1.12
236 1.91205 2.5
237 2.39006 2.3
238 585.564 1.04
239 3.34608 2.99
240 0.967973 2.34
241 1.07553 2.98
242 2.27055 2.74
243 1063.58 1.16
244 812.62 1.5
245 1.31453 2.84
246 0.322658 2.82
247 908.222 1.23
248 466.061 1.05
249 3.34608 2.88
250 1434.03 1.18
251 1673.04 1.15
252 6.33365 2.9
253 0 0
254 100 1

Angle Coeffs # harmonic

1 45.3116 90
2 50.0917 90
3 47.7712 96
4 54.9551 100
5 47.5559 103
6 55.0345 104
7 50.1709 108
8 30.1731 109.5
9 33.8897 109.5
10 40.2609 109.5
11 45.0394 109.5
12 47.694 109.5
13 55.1272 109.5
14 47.635 109.6
15 55.1139 111
16 55.0997 113
17 4.824 115
18 45.0699 115
19 59.7937 115
20 44.8085 116
21 59.7719 116
22 60.1639 117
23 34.88 120
24 39.8095 120
25 45.1871 120
26 47.4278 120
27 50.1166 120
28 59.9756 120
29 69.8346 120
30 60.0726 121
31 60.091 122
32 34.8146 123
33 59.8929 124
34 30.0075 125
35 60.0779 125
36 44.9139 126
37 49.998 126
38 60.166 126
39 50.1189 132
40 47.5187 155
41 28.4971 180
42 45.9951 109.5
43 52.4767 107.57
44 65.472 111.3
45 55.0189 97.4
46 55.0247 106.75
47 47.5019 108.53
48 65.5335 109.5
49 54.9566 107.6
50 47.4817 109.5
51 54.9931 110.3
52 55.0234 111.4
53 60.044 117.2
54 60.0023 121.4
55 48.24 180
56 180.46 109
57 192.229 106
58 145.153 126
59 145.153 96.2
60 156.922 114
61 203.998 119
62 239.306 130
63 298.152 107
64 156.922 134
65 239.306 101
66 286.382 113
67 368.766 134
68 356.997 119
69 333.459 126
70 251.075 89.6
71 380.536 114
72 286.382 135
73 145.153 88.3
74 133.384 60
75 380.536 179
76 251.075 180
77 470.766 178
78 47.0766 59.9
79 47.0766 60.3
80 251.075 124
81 706.149 118
82 117.691 144
83 627.688 123
84 470.766 118
85 333.459 94.8
86 90.2301 175
87 156.922 82.8
88 117.691 77.6
89 239.306 145
90 251.075 50.8
91 380.536 104
92 262.844 84.4
93 215.768 63.3
94 215.768 61
95 298.152 173
96 192.229 173
97 82.384 50.9
98 431.535 127
99 62.7688 67.8
100 156.922 180
101 588.457 118
102 30.1731 110
103 227.537 94.8
104 431.535 173
105 34.5228 78.5
106 70.6149 138
107 70.6149 168
108 156.922 167
109 18.046 149
110 333.459 144
111 356.997 148
112 321.69 144
113 356.997 148
114 321.69 147
115 333.459 144
116 5099.96 60.8
117 1451.53 68
118 298.152 161
119 156.922 155
120 309.921 154
121 215.768 75.3
122 309.921 64.7
123 549.227 173
124 3334.59 45.8
125 863.071 123
126 549.227 123
127 470.766 166
128 380.536 166
129 203.998 139
130 66.6918 161
131 7.45379 44.9
132 25.1075 84.8
133 192.229 161
134 333.459 70.4
135 627.688 173
136 1.92229 51.6
137 21.5768 73.3
138 7.45379 174
139 470.766 132
140 145.153 69.9
141 15.6922 144
142 1922.29 97.9
143 392.305 155
144 588.457 104
145 117.691 149
146 509.996 157
147 286.382 166
148 333.459 89.8
149 392.305 79.1
150 6669.18 45.2
151 470.766 101
152 745.379 125
153 168.691 49.6
154 509.996 112
155 100 109.47

Dihedral Coeffs # harmonic

1 0.638145 -1 1
2 0.81501 -1 1
3 1.18786 -1 1
4 1.40057 -1 1
5 2.2347 -1 1
6 2.2586 -1 1
7 0.666826 1 1
8 1.27868 1 1
9 0.365679 -1 2
10 1.40057 -1 2
11 1.69933 -1 2
12 3.9914 -1 2
13 5.73614 -1 2
14 8.00669 -1 2
15 9.99044 -1 2
16 0 1 2
17 0.0999044 1 2
18 0.499522 1 2
19 0.750478 1 2
20 1.21654 1 2
21 3.9914 1 2
22 0.250956 1 3
23 0.301147 1 3
24 0.310707 1 3
25 0.604685 1 3
26 0.700287 1 3
27 0.762428 1 3
28 0.872371 1 3
29 0.901052 1 3
30 0.932122 1 3
31 0.999044 1 3
32 1.12094 1 3
33 1.30019 1 3
34 1.41491 1 3
35 1.83795 1 3
36 2.06023 1 3
37 2.27055 1 3
38 0 1 4
39 0.239006 -1 6
40 0.239006 1 6
41 0.901052 1 6
42 0.83652 -1 2
43 0.669216 1 3
44 0.167304 -1 6
45 0.0956023 1 6
46 0.239006 -1 3
47 0 1 1

Improper Coeffs # harmonic

1 20.0075 0
2 40.0151 35.2644
3 80.0302 0
4 20.0075 180
5 40.0151 -35.2644

Atoms # full

3625 750 70 -8.4760000000000002e-01 1.4339368125695829e+01 1.6084550181016873e+01 1.0844124480160742e+01 2 1 -1
881 63 21 3.9800000000000002e-01 1.1791170732942735e+01 9.2264590176833963e+00 8.3834370823791104e+00 3 0 0
869 63 64 1.5800000000000000e-01 1.4140775383241078e+01 8.2571947051607157e+00 7.8163836537429381e+00 3 0 0
875 63 67 -6.1099999999999999e-01 1.2528928269049130e+01 9.5957932883094905e+00 8.9052834516470281e+00 3 0 0
874 63 20 3.2000000000000001e-02 1.4678355272348353e+01 7.9498795891296679e+00 8.6601708681281320e+00 3 0 0
870 63 12 1.6600000000000001e-01 1.3602226104918508e+01 9.6729289899490496e+00 7.9942931567217625e+00 3 0 0
483 35 67 -6.1099999999999999e-01 1.0689303050152514e+01 8.7866309689429798e+00 7.1978301472611879e+00 3 0 -2
871 63 64 1.5800000000000000e-01 1.4692746968045858e+01 1.0610215295498236e+01 8.5734359942818390e+00 3 0 0
879 63 20 3.2000000000000001e-02 1.4285824772840856e+01 1.1649036833283613e+01 8.5831904872696825e+00 3 0 0
6945 1857 71 4.2380000000000001e-01 1.3302981077880387e+01 1.1584991428621860e+01 1.1297888999206165e+01 2 -1 -3
878 63 20 3.2000000000000001e-02 1.4967779274816371e+01 1.0391217890959348e+01 9.6084021869056784e+00 3 0 0
6946 1857 70 -8.4760000000000002e-01 1.2836306930473244e+01 1.0715764176006179e+01 1.1461181696287294e+01 2 -1 -3
6944 1857 71 4.2380000000000001e-01 1.2704410871440313e+01 1.0239770889728931e+01 1.0591676609374609e+01 2 -1 -3
489 35 21 3.9800000000000002e-01 1.0492830594032089e+01 7.8510042900491053e+00 7.0017301027167038e+00 3 0 -2
5285 1304 71 4.2380000000000001e-01 1.1712614787630205e+01 1.4646742671182579e+01 8.6030153912895990e+00 -1 0 -2
822 59 20 3.2000000000000001e-02 1.8232154590568960e+01 7.8628755585127657e+00 9.9124407769233240e+00 5 0 -1
9404 2677 71 4.2380000000000001e-01 1.0000640217240546e+01 1.5031226047768847e+01 1.5680732072059117e+01 3 -1 -2
823 59 20 3.2000000000000001e-02 1.7280955159838914e+01 8.9311058353788724e+00 8.9999110647482556e+00 5 0 -1
814 59 12 1.6600000000000001e-01 1.8334729110905311e+01 9.9831986526111187e+00 1.0493906140583519e+01 5 0 -1
815 59 64 1.5800000000000000e-01 1.7584053371180524e+01 8.7410342164387131e+00 1.0024880776885357e+01 5 0 -1
818 59 20 3.2000000000000001e-02 1.8084331408460358e+01 9.0491948275266196e+00 1.2461016082298539e+01 5 0 -1
820 59 20 3.1000000000000000e-02 1.7709090206871725e+01 1.0844244928722038e+01 1.0658085853455898e+01 5 0 -1
824 59 58 4.1699999999999998e-01 1.6751519347394115e+01 7.4881050754850627e+00 1.1279301500993842e+01 5 0 -1
821 59 67 -6.3100000000000001e-01 1.6549457964520684e+01 8.4289394871390417e+00 1.0932016211130922e+01 5 0 -1
2044 223 70 -8.4760000000000002e-01 1.0543923991162369e+01 8.2853408656122784e+00 1.3125149584039161e+01 2 1 -2
2043 223 71 4.2380000000000001e-01 9.9551136117799732e+00 8.8927904064784791e+00 1.2591938991299457e+01 2 1 -2
2042 223 71 4.2380000000000001e-01 1.1456327809967458e+01 8.6875611477170480e+00 1.3200936247664373e+01 2 1 -2
2083 236 70 -8.4760000000000002e-01 9.9794194691402804e+00 1.3178221215874533e+01 1.3797498492920500e+01 3 -1 0
9340 2655 70 -8.4760000000000002e-01 1.1113586106112038e+01 1.1288762389982347e+01 1.5594642418768947e+01 3 1 -1
3624 750 71 4.2380000000000001e-01 1.4552842823791611e+01 1.5983985195986101e+01 1.1815886028473518e+01 2 1 -1
2081 236 71 4.2380000000000001e-01 1.0553391667707706e+01 1.3969407536232813e+01 1.4008653028333757e+01 3 -1 0
9338 2655 71 4.2380000000000001e-01 1.0777565300333933e+01 1.1947873575482955e+01 1.4921836561038846e+01 3 1 -1
9406 2677 70 -8.4760000000000002e-01 9.2500544396686095e+00 1.4855804416979748e+01 1.6317798412545272e+01 3 -1 -2
4973 1200 71 4.2380000000000001e-01 9.4647575774098467e+00 1.8052356870595251e+01 7.9606453118457985e+00 2 -1 -2
9339 2655 71 4.2380000000000001e-01 1.0349716162914625e+01 1.0961330128910921e+01 1.6150786365545205e+01 3 1 -1
7467 2031 71 4.2380000000000001e-01 1.5540201269440923e+01 8.9879612850915631e+00 1.2396304260317645e+01 5 -2 -2
7466 2031 71 4.2380000000000001e-01 1.4487037237623216e+01 9.3015799633396092e+00 1.3604249582331651e+01 5 -2 -2
7468 2031 70 -8.4760000000000002e-01 1.5454701049750582e+01 9.2534080200967885e+00 1.3356634211659832e+01 5 -2 -2
9405 2677 71 4.2380000000000001e-01 9.6227776072858386e+00 1.4594221966031878e+01 1.7208111457686030e+01 3 -1 -2
5515 1380 70 -8.4760000000000002e-01 8.1843703499150493e+00 1.2748518549127350e+01 1.0149732340544016e+01 4 -1 -2
4925 1184 71 4.2380000000000001e-01 1.4927396833814401e+01 1.2346973169955429e+01 1.2663500712298008e+01 3 0 1
4926 1184 71 4.2380000000000001e-01 1.5242917431511025e+01 1.0957044402890034e+01 1.3460486213406858e+01 3 0 1
4927 1184 70 -8.4760000000000002e-01 1.5386866074143970e+01 1.1946623825564515e+01 1.3456352639327564e+01 3 0 1
8118 2248 71 4.2380000000000001e-01 1.4773112686640941e+01 1.3602753172649191e+01 1.1013372460396909e+01 3 0 -2
8117 2248 71 4.2380000000000001e-01 1.3344512945440183e+01 1.3899091268705824e+01 1.1746807525999323e+01 3 0 -2
8119 2248 70 -8.4760000000000002e-01 1.3961206229436224e+01 1.3183227432712782e+01 1.1419342071510931e+01 3 0 -2
10088 2905 71 4.2380000000000001e-01 1.7107759843345708e+01 1.2514353208186476e+01 1.3951757687582496e+01 3 0 -1
7470 2032 71 4.2380000000000001e-01 1.4722474205892926e+01 1.4713983595202642e+01 1.6208208668228146e+01 4 2 -2
7282 1969 70 -8.4760000000000002e-01 1.6225563479033344e+01 1.4254600989200087e+01 1.0155927075599108e+01 4 1 -1
7280 1969 71 4.2380000000000001e-01 1.6332112405807898e+01 1.3715025419358305e+01 9.3207559582995572e+00 4 1 -1
5144 1257 71 4.2380000000000001e-01 1.3391324032352870e+01 1.7421847707435283e+01 1.0575023710665004e+01 5 0 -2
5146 1257 70 -8.4760000000000002e-01 1.3119145639102744e+01 1.8372910112620627e+01 1.0428720868081072e+01 5 0 -2
5145 1257 71 4.2380000000000001e-01 1.2198065964811002e+01 1.8515515415805936e+01 1.0791048390456123e+01 5 0 -2
1910 179 71 4.2380000000000001e-01 8.8195325723624780e+00 1.6510515379219882e+01 1.5805971583689912e+01 3 -2 -1
4313 980 71 4.2380000000000001e-01 1.0374423947787974e+01 1.8628605636507391e+01 1.0269085371229741e+01 5 -3 -3
6760 1795 70 -8.4760000000000002e-01 1.3230881078978500e+01 1.1215796418756277e+01 1.7516115704776379e+01 3 0 -2
6146 1591 71 4.2380000000000001e-01 1.2297661934223484e+01 1.0210143485796912e+01 1.4613658544288903e+01 4 0 -2
4185 937 71 4.2380000000000001e-01 1.5976562208804726e+01 1.1044890450552060e+01 1.6002059897806177e+01 4 0 0
1912 179 70 -8.4760000000000002e-01 8.5190397675557605e+00 1.7462740948290580e+01 1.5751420469276439e+01 3 -2 -1
4184 937 71 4.2380000000000001e-01 1.6368698546687558e+01 1.2102103824660091e+01 1.7183232825576404e+01 4 0 0
6147 1591 71 4.2380000000000001e-01 1.2764024542855118e+01 9.9662218256826343e+00 1.3067809695300916e+01 4 0 -2
6148 1591 70 -8.4760000000000002e-01 1.2923916586445124e+01 9.7050591333518241e+00 1.4019772871036121e+01 4 0 -2
6758 1795 71 4.2380000000000001e-01 1.4115435405025945e+01 1.1463726668845144e+01 1.7121021391750563e+01 3 0 -2
6759 1795 71 4.2380000000000001e-01 1.2508985096816286e+01 1.1373042228565765e+01 1.6842212726044792e+01 3 0 -2
4186 937 70 -8.4760000000000002e-01 1.5731299342677774e+01 1.1911485166849634e+01 1.6436645896038065e+01 4 0 0
6631 1752 70 -8.4760000000000002e-01 1.2283812931307594e+01 1.7789057931185887e+01 1.3438611347917352e+01 4 0 -1
6326 1651 71 4.2380000000000001e-01 1.6498346086480225e+01 9.0742770941911228e+00 1.4881632440165946e+01 3 -2 -4
6016 1547 70 -8.4760000000000002e-01 2.6881585044297630e+01 7.1523796979109830e+00 8.8458970414168832e+00 1 0 -2
877 63 67 -6.3100000000000001e-01 1.5784801332131980e+01 1.0468216178059924e+01 7.6181278830962880e+00 3 0 0
6033 1553 71 4.2380000000000001e-01 1.0106307863331873e+01 1.3034099497364307e+01 9.5689496513368439e+00 4 0 -1
2082 236 71 4.2380000000000001e-01 9.1393610015726772e+00 1.3485655078860997e+01 1.3350517950589795e+01 3 -1 0
7281 1969 71 4.2380000000000001e-01 1.7017527296538141e+01 1.4110397783798870e+01 1.0749226341735470e+01 4 1 -1
4975 1200 70 -8.4760000000000002e-01 9.2070215771962260e+00 1.8634001377420418e+01 8.7321814200097627e+00 2 -1 -2
6629 1752 71 4.2380000000000001e-01 1.1674970866428215e+01 1.7919569994581007e+01 1.2656126088857265e+01 4 0 -1
6034 1553 70 -8.4760000000000002e-01 1.1042580476649963e+01 1.3268303433182044e+01 9.8307659215840157e+00 4 0 -1
5514 1380 71 4.2380000000000001e-01 7.3297074811706624e+00 1.2335094778179059e+01 9.8356656283548247e+00 4 -1 -2
4775 1134 71 4.2380000000000001e-01 1.1770460784666032e+01 2.7631746971265450e+01 1.3134986878325982e+01 4 1 0
1911 179 71 4.2380000000000001e-01 7.9892113856341371e+00 1.7692353318208610e+01 1.6567854998179797e+01 3 -2 -1
3663 763 71 4.2380000000000001e-01 1.1802751598306447e+01 1.6078999487622440e+01 1.4779568390264709e+01 4 -2 0
341 25 20 3.2000000000000001e-02 2.6445914062230976e+01 2.9481529722514619e+01 1.1171169346701735e+01 4 -1 -2
1424 102 20 3.2000000000000001e-02 2.9712530834379631e+01 1.9409299650413868e+01 1.0355526344451292e+01 3 -2 0
7471 2032 70 -8.4760000000000002e-01 1.4187668077932070e+01 1.4213330327043881e+01 1.5527522252172307e+01 4 2 -2
4930 1185 70 -8.4760000000000002e-01 1.7967586596933824e+01 1.6994614361903430e+01 1.2599453086944933e+01 1 0 -2
4929 1185 71 4.2380000000000001e-01 1.7110942563622952e+01 1.7078939519086994e+01 1.3108428273364023e+01 1 0 -2
7469 2032 71 4.2380000000000001e-01 1.4514973980536173e+01 1.3269892400702471e+01 1.5474597898266753e+01 4 2 -2
3623 750 71 4.2380000000000001e-01 1.4981881736968809e+01 1.5541245838706066e+01 1.0303752444599569e+01 2 1 -1
3662 763 71 4.2380000000000001e-01 1.2439599843743874e+01 1.4583964830475917e+01 1.4940615521742250e+01 4 -2 0
3664 763 70 -8.4760000000000002e-01 1.1589532401294445e+01 1.5107481695921857e+01 1.4882989901266221e+01 4 -2 0
2946 524 71 4.2380000000000001e-01 1.6587375413951960e+01 1.5640408787246109e+01 1.6969424963337403e+01 2 -2 -2
8732 2453 71 4.2380000000000001e-01 1.4540316843258774e+01 7.8144492695229832e+00 1.7105570397263385e+01 0 1 -2
10008 2878 71 4.2380000000000001e-01 9.1780323396077179e+00 1.1135639333322878e+01 1.1296816318987187e+01 3 0 -1
2441 356 71 4.2380000000000001e-01 2.9743766583930597e+01 1.2334852132055934e+01 1.8272340455311767e+01 3 1 -1
10009 2878 70 -8.4760000000000002e-01 8.9548086737411801e+00 1.0326656447582010e+01 1.1840621024554473e+01 3 0 -1
4940 1189 71 4.2380000000000001e-01 2.9952781104741018e+01 1.4929197949995345e+01 1.0141562640691962e+01 2 0 0
8734 2453 70 -8.4760000000000002e-01 1.4459201427891465e+01 7.1108392852311244e+00 1.7811515678753324e+01 0 1 -2
876 63 20 3.1000000000000000e-02 1.3326251951267302e+01 1.0102786030861308e+01 7.0119358017516813e+00 3 0 0
2947 524 70 -8.4760000000000002e-01 1.5631281342443510e+01 1.5820445137853882e+01 1.7200676578987874e+01 2 -2 -2
873 63 20 3.2000000000000001e-02 1.3310218812233089e+01 7.5570827475713527e+00 7.6783205359560558e+00 3 0 0
10007 2878 71 4.2380000000000001e-01 8.3533959700232518e+00 1.0588079061164658e+01 1.2595582525026527e+01 3 0 -1
5513 1380 71 4.2380000000000001e-01 7.9823416484536249e+00 1.3465838964998632e+01 1.0816546809839259e+01 4 -1 -2
6741 1789 71 4.2380000000000001e-01 1.8471181454257110e+01 1.0053150598734693e+01 1.6000838247101285e+01 2 -1 -2
6742 1789 70 -8.4760000000000002e-01 1.9198284474459598e+01 1.0494414626641674e+01 1.6526779004611733e+01 2 -1 -2
783 56 21 3.9800000000000002e-01 7.8280544568211017e+00 9.5411362692264206e+00 1.0782239328876672e+01 3 -1 -2
780 56 20 3.2000000000000001e-02 6.9797006998868092e+00 7.0665205223358054e+00 1.1692821630972814e+01 3 -1 -2
778 56 20 3.1000000000000000e-02 8.6403753181604070e+00 7.7857655280601543e+00 9.3296832832254832e+00 3 -1 -2
6384 1670 71 4.2380000000000001e-01 1.1812258471679293e+01 1.8299537796528661e+01 1.5240897342050717e+01 3 1 -3
6630 1752 71 4.2380000000000001e-01 1.3123297757277738e+01 1.8314198764619469e+01 1.3298977427747172e+01 4 0 -1
2945 524 71 4.2380000000000001e-01 1.5459985004092843e+01 1.6805099907992840e+01 1.7167229068193656e+01 2 -2 -2
5240 1289 71 4.2380000000000001e-01 2.2155173295976912e+01 1.0706448523873409e+01 7.6050136195751197e+00 2 -1 -1
8987 2538 71 4.2380000000000001e-01 1.4503317839221429e+01 1.5294350253295210e+01 1.4205520793892124e+01 4 -1 -2
8989 2538 70 -8.4760000000000002e-01 1.4635512665170564e+01 1.5874303333780754e+01 1.3401664169833561e+01 4 -1 -2
6032 1553 71 4.2380000000000001e-01 1.1185479494846579e+01 1.3042873311242882e+01 1.0794491240152077e+01 4 0 -1
6740 1789 71 4.2380000000000001e-01 1.8802244101343426e+01 1.1195308724847674e+01 1.7119995593037231e+01 2 -1 -2
2930 519 71 4.2380000000000001e-01 2.0701339204214968e+01 2.6375722212230396e+01 1.7357656893953425e+01 4 -1 -2
8632 2419 70 -8.4760000000000002e-01 7.3459878389186732e+00 1.3387426807195924e+01 1.4956953989951225e+01 2 -3 0
1420 102 20 3.2000000000000001e-02 2.9258760470420832e+01 2.0706511554469660e+01 8.3621683518347805e+00 3 -2 0
482 35 20 3.2000000000000001e-02 9.2629612012186406e+00 1.1153753047937688e+01 7.6319314165508425e+00 3 0 -2
819 59 67 -6.1099999999999999e-01 1.9370803846550807e+01 1.0459977935615324e+01 9.6043123088489128e+00 5 0 -1
5933 1520 71 4.2380000000000001e-01 1.6841725009545293e+01 1.1619984525000074e+01 8.2182286234997370e+00 3 -1 0
1141 82 67 -6.1099999999999999e-01 6.6989756681995587e+00 2.9631015195304794e+01 1.0716738569778226e+01 3 -1 0
2659 428 70 -8.4760000000000002e-01 8.9373035738524234e+00 1.0655007579382042e+01 1.7437308351179031e+01 2 -1 -3
8631 2419 71 4.2380000000000001e-01 8.0676069968041855e+00 1.3808893201155630e+01 1.5506170165443567e+01 2 -3 0
5934 1520 71 4.2380000000000001e-01 1.8303398741663308e+01 1.2012583786887603e+01 8.8314302412029715e+00 3 -1 0
8949 2525 71 4.2380000000000001e-01 1.2406583751749888e+01 1.7318278274406833e+01 1.7976830564466617e+01 4 0 0
5286 1304 71 4.2380000000000001e-01 1.1469568226315749e+01 1.5715665251500932e+01 7.3926543426261526e+00 -1 0 -2
6385 1670 70 -8.4760000000000002e-01 1.1288668052381144e+01 1.8521069580413972e+01 1.6063565403827525e+01 3 1 -3
6383 1670 71 4.2380000000000001e-01 1.0320299065447195e+01 1.8329146905407036e+01 1.5904087571021821e+01 3 1 -3
6594 1740 71 4.2380000000000001e-01 1.2364801542785692e+01 6.7519428027748276e+00 1.5229644043198503e+01 5 0 -2
5935 1520 70 -8.4760000000000002e-01 1.7521714316010403e+01 1.2347984086237174e+01 8.3056153389055538e+00 3 -1 0
9462 2696 71 4.2380000000000001e-01 9.3183898641706886e+00 8.1780881828289971e+00 1.4844654040523109e+01 4 0 0
2657 428 71 4.2380000000000001e-01 8.3640999375091987e+00 1.0592450443120338e+01 1.8254333140366477e+01 2 -1 -3
773 56 64 1.5800000000000000e-01 7.9481747707681967e+00 6.9767985083916253e+00 1.1250373643811994e+01 3 -1 -2
7781 2136 71 4.2380000000000001e-01 6.8717543271080217e+00 1.4963774910322034e+01 1.2172990329449242e+01 4 0 -1
2658 428 71 4.2380000000000001e-01 8.9718309316887321e+00 9.7636486003018863e+00 1.6985321306394070e+01 2 -1 -3
10122 2916 71 4.2380000000000001e-01 7.1175298359249064e+00 1.8164482129575710e+01 9.3855206401126203e+00 3 0 -2
3545 724 71 4.2380000000000001e-01 2.1680542630032093e+01 7.4046807381209634e+00 1.7079884144105314e+01 3 -1 -3
772 56 12 1.6600000000000001e-01 7.7116668378367708e+00 7.6872684436388177e+00 9.8989047711681337e+00 3 -1 -2
7782 2136 71 4.2380000000000001e-01 7.9180368551411782e+00 1.6111433381896827e+01 1.1668199878965204e+01 4 0 -1
781 56 20 3.2000000000000001e-02 8.5915158610962052e+00 7.5618166329862886e+00 1.1838324783895644e+01 3 -1 -2
6115 1580 70 -8.4760000000000002e-01 2.9578047574193782e+01 2.2998140782413032e+01 9.7105894648706794e+00 4 0 -1
3162 596 71 4.2380000000000001e-01 7.8012541329099587e+00 1.5498811496598107e+01 7.9510482621747078e+00 1 -2 -1
2906 511 71 4.2380000000000001e-01 6.7565969402315940e+00 2.1838524465536807e+01 1.0472739875270252e+01 4 0 -3
3547 724 70 -8.4760000000000002e-01 2.0905466211732620e+01 6.8122635723040483e+00 1.6860103062582922e+01 3 -1 -3
5593 1406 70 -8.4760000000000002e-01 1.7728903421037110e+01 1.2382109754476474e+01 1.8217478767781756e+01 4 -1 -3
9335 2654 71 4.2380000000000001e-01 2.9779199204859669e+01 2.0665821335758409e+01 1.8083491130243814e+01 2 0 1
6333 1653 71 4.2380000000000001e-01 8.3541016325152118e+00 2.8065605611750428e+01 8.8420920600507156e+00 3 -2 -1
481 35 20 3.2000000000000001e-02 1.0842667146019570e+01 1.1418402484548309e+01 7.0505022598517657e+00 3 0 -2
4769 1132 71 4.2380000000000001e-01 9.5731777373000302e+00 2.9491466275493053e+01 1.6646182504262867e+01 2 -2 -2
817 59 20 3.2000000000000001e-02 1.9682312256827160e+01 8.7373533676157553e+00 1.1713045767405180e+01 5 0 -1
813 59 64 1.5800000000000000e-01 1.8875083489223250e+01 9.4869976775030125e+00 1.1849466856345833e+01 5 0 -1
375 27 20 3.2000000000000001e-02 2.8830141248492321e+01 7.7599996650958740e+00 1.6518670365799103e+01 3 -1 -2
10089 2905 71 4.2380000000000001e-01 1.8440686637421706e+01 1.1705814803264278e+01 1.3465740937273944e+01 3 0 -1
816 59 67 -6.3100000000000001e-01 1.9555627354962688e+01 1.0469016047315804e+01 1.2631620643746089e+01 5 0 -1
10090 2905 70 -8.4760000000000002e-01 1.8107595790132528e+01 1.2523196812431618e+01 1.3935786018349479e+01 3 0 -1
7346 1991 71 4.2380000000000001e-01 2.2869414557647360e+01 1.4245793909704517e+01 1.7236459430048257e+01 3 1 -2
4596 1074 71 4.2380000000000001e-01 1.8836517495037196e+01 1.0933485288688640e+01 7.3981403401074877e+00 6 0 -2
3701 776 71 4.2380000000000001e-01 2.9911974712525915e+01 2.1140507123127069e+01 1.3034830239252880e+01 2 0 -1
63 5 67 -6.1099999999999999e-01 1.5383543244880569e+01 2.9026069438772076e+01 7.1210319859836249e+00 3 -1 -2
2774 467 71 4.2380000000000001e-01 2.1559839945005066e+01 1.2783832859732525e+01 8.5215622117944623e+00 4 -2 1
10410 3012 71 4.2380000000000001e-01 7.1128153405106689e+00 2.6831588761615905e+01 1.2595698241897304e+01 4 0 1
3161 596 71 4.2380000000000001e-01 7.5428391487896249e+00 1.5378729290486834e+01 9.5589794452581831e+00 1 -2 -1
6424 1683 70 -8.4760000000000002e-01 2.7975324660709763e+01 1.0768231925842425e+01 6.9551914291795418e+00 3 -2 -4
1449 104 67 -6.1099999999999999e-01 1.8802492263921447e+01 2.6895161223097464e+01 7.2896889071335229e+00 4 -1 -1
373 27 67 -6.3100000000000001e-01 2.7495083147963960e+01 7.5588641444919640e+00 1.4901643117395011e+01 3 -1 -2
8233 2286 70 -8.4760000000000002e-01 1.8121912836790031e+01 1.5267108419335724e+01 1.5882900077060766e+01 3 0 -1
6559 1728 70 -8.4760000000000002e-01 1.9137785284560227e+01 1.4992814580280330e+01 8.3413388339333157e+00 2 0 1
8232 2286 71 4.2380000000000001e-01 1.8032733736647366e+01 1.4822825804561655e+01 1.4991459930691551e+01 3 0 -1
8208 2278 71 4.2380000000000001e-01 2.7600695848664689e+01 9.5725679519285638e+00 1.7759508373587757e+01 4 1 -2
6842 1823 71 4.2380000000000001e-01 2.8641358478639241e+01 9.6684557995882070e+00 9.7021687066976554e+00 2 0 -2
9643 2756 70 -8.4760000000000002e-01 2.5701808028642205e+01 7.1263042591559520e+00 1.6641268348138979e+01 3 -1 -1
9824 2817 71 4.2380000000000001e-01 2.0144684280066024e+01 7.7138198759190111e+00 1.8127412358718907e+01 2 -1 0
7647 2091 71 4.2380000000000001e-01 2.6373887679224612e+01 1.8062196073313487e+01 1.6964766050500991e+01 3 -3 -2
3477 701 71 4.2380000000000001e-01 2.5047017880676744e+01 1.2829783735496655e+01 1.6124422377330148e+01 2 0 -2
825 59 21 3.9800000000000002e-01 2.0228768999819792e+01 1.0343836271164342e+01 9.9877078601726783e+00 5 0 -1
3375 667 71 4.2380000000000001e-01 2.2314108740730738e+01 1.1444929268883213e+01 1.1866168257099538e+01 2 0 -1
3376 667 70 -8.4760000000000002e-01 2.1891583857130833e+01 1.0843350214602911e+01 1.1188243614809211e+01 2 0 -1
826 59 21 4.1699999999999998e-01 2.0453666561288635e+01 1.0556806905233600e+01 1.2262498459788070e+01 5 0 -1
4928 1185 71 4.2380000000000001e-01 1.8189753053301480e+01 1.6027096795615705e+01 1.2478797040321171e+01 1 0 -2
3374 667 71 4.2380000000000001e-01 2.2604282763420553e+01 1.0344722597553716e+01 1.0694850646012291e+01 2 0 -1