LAMMPS data file via write_data, version 21 Feb 2017, timestep = 500000

10411 atoms
71 atom types
7399 bonds
254 bond types
5512 angles
155 angle types
3375 dihedrals
47 dihedral types
125 impropers
5 improper types

0.0000000000000000e+00 6.0000000000000000e+01 xlo xhi
0.0000000000000000e+00 6.0000000000000000e+01 ylo yhi
0.0000000000000000e+00 6.0000000000000000e+01 zlo zhi

Masses

1 15.9994
2 15.9994
3 15.9994
4 15.9994
5 15.9994
6 14.0067
7 14.0067
8 14.0067
9 14.0067
10 14.0067
11 14.0067
12 12.011
13 12.011
14 13.019
15 14.027
16 15.035
17 16.043
18 14.027
19 12.011
20 1.008
21 1.008
22 1
23 32.06
24 63.546
25 63.546
26 55.847
27 65.37
28 24.305
29 40.08
30 39.948
31 18.9984
32 35.453
33 79.904
34 12.011
35 15.9994
36 22.9898
37 35.453
38 12.011
39 35.453
40 1.008
41 32.06
42 12.011
43 15.9994
44 12.011
45 35.453
46 18.9984
47 12.011
48 13.019
49 15.9994
50 12.011
51 15.9994
52 14.0067
53 15.035
54 126.904
55 35.453
56 10.811
57 78.96
58 1.008
59 35.453
60 79.904
61 15.9994
62 14.0067
63 12.011
64 12.011
65 14.0067
66 14.0067
67 15.9994
68 28.08
69 30.9738
70 15.9994
71 1.008

Pair Coeffs # lj/cut/coul/long/gpu

1 0.305714 2.76007
2 0.412295 2.62585
3 0.203061 2.95484
4 0.252656 2.84916
5 0.155394 3.16565
6 0.152915 3.13647
7 0.0700622 3.5722
8 0.152915 3.13647
9 0.104651 3.34113
10 0.152915 3.13647
11 0.152915 3.13647
12 0.0663015 3.58118
13 0.00167194 6.63949
14 0.0226791 5.01918
15 0.098122 4.07038
16 0.207254 3.74792
17 0.302012 3.70995
18 0.11455 3.95474
19 0.120138 3.74119
20 0.0282937 2.37341
21 0 0
22 0 0
23 0.455513 3.30769
24 2.039 1.5184
25 2.039 1.5184
26 0 0
27 1.107 1.68112
28 0.0747249 1.93323
29 0.121156 2.81311
30 0.238148 3.40984
31 0.10897 2.94006
32 0.300087 3.46982
33 0.69792 3.6508
34 0.243126 3.60124
35 0.131455 3.17694
36 0.00509651 3.12117
37 0.162149 4.09571
38 0.101741 3.40006
39 0.299511 3.44
40 0.0197496 2.20219
41 0.310038 3.55995
42 0.207254 3.74792
43 0.409923 2.63004
44 0.0544087 3.7739
45 0.270582 3.44757
46 0.0828967 3.07717
47 0.0970049 3.3611
48 0.117014 3.91992
49 0.203061 2.95484
50 0.105027 3.74991
51 0.210013 2.95998
52 0.169966 3.25006
53 0.207254 3.74792
54 0.836845 3.84961
55 0.329921 3.26983
56 0.0663015 3.58118
57 0.455513 3.30769
58 0 0
59 0.329921 3.26983
60 0.580843 3.89995
61 0.119432 3.40025
62 0.1399 3.9019
63 0.0734574 3.52053
64 0.245018 2.81144
65 0.142655 4.06776
66 0.219779 3.64529
67 0.119497 3.1
68 0.584786 3.38557
69 0.584786 3.38557
70 0.1553 3.166
71 0 0

Bond Coeffs # harmonic

1 375.239 1
2 446.941 1
3 349.274 1.09
4 1109.29 1.12
5 600.242 1.23
6 500.418 1.25
7 499.732 1.32
8 375.003 1.33
9 448.144 1.33
10 498.877 1.33
11 450.617 1.34
12 502.116 1.34
13 450.906 1.36
14 500.679 1.38
15 399.904 1.39
16 498.726 1.39
17 400.057 1.4
18 399.792 1.43
19 450.132 1.43
20 300.222 1.435
21 449.843 1.47
22 299.976 1.48
23 399.968 1.48
24 450.226 1.48
25 450.108 1.5
26 299.844 1.52
27 400.034 1.53
28 299.851 1.61
29 299.727 1.63
30 205.976 1.78
31 449.816 1.78
32 449.828 1.83
33 300.045 1.87
34 59.9679 1.98
35 60.0382 2
36 500.307 2.04
37 63.0357 2.21
38 554.493 1
39 349.928 1.1
40 599.794 1.758
41 449.829 1.53
42 444.341 1.93799
43 599.679 1.76
44 501.026 1.265
45 448.656 1.35
46 555.129 1.63299
47 350.249 2.33839
48 600.161 2.90283
49 445.884 2.79388
50 443.815 2.91189
51 409.328 2.077
52 600.173 2.87407
53 88.4321 1.1
54 56.1663 1.84
55 513.862 1.01
56 310.707 1.41
57 442.161 1.02
58 239.006 1.46
59 513.862 1.29
60 442.161 0.972
61 812.62 1.22
62 466.061 1.22
63 239.006 1.54
64 179.254 1.56
65 227.055 1.54
66 106.358 1.76
67 131.453 1.69
68 203.155 1.75
69 203.155 1.51
70 143.403 1.57
71 179.254 0.971
72 191.205 1.5
73 262.906 1.45
74 549.713 1.52
75 83.652 1.03
76 191.205 1.74
77 191.205 1.72
78 227.055 1.64
79 203.155 1.67
80 191.205 1.66
81 215.105 1.65
82 513.862 1.31
83 155.354 1.01
84 35.8509 1.89
85 101.577 1.93
86 155.354 1.36
87 167.304 1.79
88 114.723 1.35
89 155.354 1.39
90 203.155 1.38
91 227.055 0.983
92 155.354 1.3
93 418.26 1.08
94 155.354 1.9
95 1314.53 1.16
96 143.403 1.8
97 155.354 1.42
98 478.011 0.984
99 119.503 1.08
100 119.503 1.91
101 418.26 1.03
102 525.813 1.28
103 131.453 1.22
104 143.403 1.11
105 1195.03 1.21
106 466.061 1.07
107 956.023 1.21
108 693.117 1.21
109 87.2371 1.85
110 394.359 1.11
111 109.943 2.09
112 131.453 1.82
113 99.1874 1.96
114 56.1663 1.86
115 167.304 1.21
116 167.304 1.28
117 143.403 1.71
118 131.453 1.6
119 454.111 1.21
120 41.826 1.61
121 131.453 1.94
122 155.354 1.59
123 143.403 2.1
124 119.503 2.12
125 57.3614 2.13
126 203.155 1.26
127 1195.03 1.14
128 191.205 1.23
129 788.719 1.3
130 239.006 1.31
131 59.7514 2.04
132 82.457 1.34
133 621.415 0.938
134 310.707 1.16
135 34.6558 2.07
136 60.9465 1.16
137 93.2122 2.16
138 43.021 2.23
139 23.9006 2.05
140 896.272 1.19
141 728.967 1.47
142 394.359 1.57
143 1195.03 1.18
144 54.9713 1.87
145 1063.58 1.17
146 215.105 1.13
147 59.7514 2.02
148 179.254 1.07
149 250.956 1.14
150 155.354 1.06
151 537.763 1.46
152 812.62 1.17
153 92.0172 2.15
154 239.006 1.04
155 60.9465 1.4
156 1314.53 1.11
157 466.061 1.56
158 752.868 1.49
159 501.912 1.54
160 35.8509 2.17
161 35.8509 2.27
162 669.216 1.45
163 764.818 1.25
164 848.47 1.27
165 561.663 1.16
166 1434.03 1.14
167 501.912 1.17
168 537.763 1.19
169 920.172 1.14
170 227.055 1.24
171 1434.03 1.13
172 89.6272 2.91
173 57.3614 2.24
174 418.26 0.743
175 239.006 1.2
176 111.138 2.33
177 96.7973 2.42
178 83.652 1.32
179 1159.18 1.2
180 1314.53 1.2
181 430.21 1.58
182 53.7763 1.47
183 1.55354 2.77
184 5.13862 2.25
185 100.382 2.18
186 50.1912 1.52
187 93.2122 2.19
188 27.4857 1.48
189 1912.05 1.07
190 8.60421 2.8
191 87.2371 2.52
192 0.669216 2.79
193 812.62 1.16
194 1.79254 2.68
195 406.31 1.59
196 119.503 1.18
197 34.6558 2.54
198 1792.54 1.1
199 824.57 1.29
200 33.4608 2.44
201 107.553 2.41
202 112.333 2.36
203 20.3155 1.43
204 2.27055 2.57
205 19.1205 2.47
206 0.764818 2.71
207 1553.54 1.12
208 3.70459 2.75
209 501.912 1.14
210 0.717017 2.86
211 10.5163 2.64
212 1912.05 0.985
213 1.91205 2.61
214 7.40918 2.62
215 59.7514 2.46
216 3.58509 2.66
217 1.31453 2.72
218 58.5564 1.63
219 573.614 1.12
220 37.0459 2.32
221 16.7304 1.44
222 1553.54 1.16
223 7.17017 2.69
224 10.0382 2.49
225 3.22658 2.92
226 0.82457 2.29
227 9.79924 2.4
228 1.03967 2.37
229 1.55354 2.94
230 5.85564 2.95
231 1.67304 2.96
232 0.0131453 2.56
233 5.25813 2.59
234 15.5354 2.38
235 836.52 1.12
236 1.91205 2.5
237 2.39006 2.3
238 585.564 1.04
239 3.34608 2.99
240 0.967973 2.34
241 1.07553 2.98
242 2.27055 2.74
243 1063.58 1.16
244 812.62 1.5
245 1.31453 2.84
246 0.322658 2.82
247 908.222 1.23
248 466.061 1.05
249 3.34608 2.88
250 1434.03 1.18
251 1673.04 1.15
252 6.33365 2.9
253 0 0
254 100 1

Angle Coeffs # harmonic

1 45.3116 90
2 50.0917 90
3 47.7712 96
4 54.9551 100
5 47.5559 103
6 55.0345 104
7 50.1709 108
8 30.1731 109.5
9 33.8897 109.5
10 40.2609 109.5
11 45.0394 109.5
12 47.694 109.5
13 55.1272 109.5
14 47.635 109.6
15 55.1139 111
16 55.0997 113
17 4.824 115
18 45.0699 115
19 59.7937 115
20 44.8085 116
21 59.7719 116
22 60.1639 117
23 34.88 120
24 39.8095 120
25 45.1871 120
26 47.4278 120
27 50.1166 120
28 59.9756 120
29 69.8346 120
30 60.0726 121
31 60.091 122
32 34.8146 123
33 59.8929 124
34 30.0075 125
35 60.0779 125
36 44.9139 126
37 49.998 126
38 60.166 126
39 50.1189 132
40 47.5187 155
41 28.4971 180
42 45.9951 109.5
43 52.4767 107.57
44 65.472 111.3
45 55.0189 97.4
46 55.0247 106.75
47 47.5019 108.53
48 65.5335 109.5
49 54.9566 107.6
50 47.4817 109.5
51 54.9931 110.3
52 55.0234 111.4
53 60.044 117.2
54 60.0023 121.4
55 48.24 180
56 180.46 109
57 192.229 106
58 145.153 126
59 145.153 96.2
60 156.922 114
61 203.998 119
62 239.306 130
63 298.152 107
64 156.922 134
65 239.306 101
66 286.382 113
67 368.766 134
68 356.997 119
69 333.459 126
70 251.075 89.6
71 380.536 114
72 286.382 135
73 145.153 88.3
74 133.384 60
75 380.536 179
76 251.075 180
77 470.766 178
78 47.0766 59.9
79 47.0766 60.3
80 251.075 124
81 706.149 118
82 117.691 144
83 627.688 123
84 470.766 118
85 333.459 94.8
86 90.2301 175
87 156.922 82.8
88 117.691 77.6
89 239.306 145
90 251.075 50.8
91 380.536 104
92 262.844 84.4
93 215.768 63.3
94 215.768 61
95 298.152 173
96 192.229 173
97 82.384 50.9
98 431.535 127
99 62.7688 67.8
100 156.922 180
101 588.457 118
102 30.1731 110
103 227.537 94.8
104 431.535 173
105 34.5228 78.5
106 70.6149 138
107 70.6149 168
108 156.922 167
109 18.046 149
110 333.459 144
111 356.997 148
112 321.69 144
113 356.997 148
114 321.69 147
115 333.459 144
116 5099.96 60.8
117 1451.53 68
118 298.152 161
119 156.922 155
120 309.921 154
121 215.768 75.3
122 309.921 64.7
123 549.227 173
124 3334.59 45.8
125 863.071 123
126 549.227 123
127 470.766 166
128 380.536 166
129 203.998 139
130 66.6918 161
131 7.45379 44.9
132 25.1075 84.8
133 192.229 161
134 333.459 70.4
135 627.688 173
136 1.92229 51.6
137 21.5768 73.3
138 7.45379 174
139 470.766 132
140 145.153 69.9
141 15.6922 144
142 1922.29 97.9
143 392.305 155
144 588.457 104
145 117.691 149
146 509.996 157
147 286.382 166
148 333.459 89.8
149 392.305 79.1
150 6669.18 45.2
151 470.766 101
152 745.379 125
153 168.691 49.6
154 509.996 112
155 100 109.47

Dihedral Coeffs # harmonic

1 0.638145 -1 1
2 0.81501 -1 1
3 1.18786 -1 1
4 1.40057 -1 1
5 2.2347 -1 1
6 2.2586 -1 1
7 0.666826 1 1
8 1.27868 1 1
9 0.365679 -1 2
10 1.40057 -1 2
11 1.69933 -1 2
12 3.9914 -1 2
13 5.73614 -1 2
14 8.00669 -1 2
15 9.99044 -1 2
16 0 1 2
17 0.0999044 1 2
18 0.499522 1 2
19 0.750478 1 2
20 1.21654 1 2
21 3.9914 1 2
22 0.250956 1 3
23 0.301147 1 3
24 0.310707 1 3
25 0.604685 1 3
26 0.700287 1 3
27 0.762428 1 3
28 0.872371 1 3
29 0.901052 1 3
30 0.932122 1 3
31 0.999044 1 3
32 1.12094 1 3
33 1.30019 1 3
34 1.41491 1 3
35 1.83795 1 3
36 2.06023 1 3
37 2.27055 1 3
38 0 1 4
39 0.239006 -1 6
40 0.239006 1 6
41 0.901052 1 6
42 0.83652 -1 2
43 0.669216 1 3
44 0.167304 -1 6
45 0.0956023 1 6
46 0.239006 -1 3
47 0 1 1

Improper Coeffs # harmonic

1 20.0075 0
2 40.0151 35.2644
3 80.0302 0
4 20.0075 180
5 40.0151 -35.2644

Atoms # full

10380 3002 71 4.2380000000000001e-01 7.9393100208710967e+00 1.0557673695914376e+00 2.0928250131190600e+00 0 2 -1
2773 466 70 -8.4760000000000002e-01 1.0918552788224684e+01 2.1993426901237778e+00 1.1864120182468252e+01 0 0 0
2301 309 71 4.2380000000000001e-01 2.7249358807696435e+01 2.8184080194630923e+01 9.4108551026116078e+00 0 0 0
6224 1617 71 4.2380000000000001e-01 5.6198505340423059e+00 2.9765586634553433e+01 5.6781396258116368e-01 2 0 1
9694 2773 70 -8.4760000000000002e-01 2.1786545726071473e+01 2.8549293768318861e+01 1.1110976074139627e+01 1 0 1
9693 2773 71 4.2380000000000001e-01 2.2268375761867983e+01 2.7802130750263167e+01 1.0653168876828188e+01 1 0 1
10379 3002 71 4.2380000000000001e-01 8.7306504147174024e+00 3.3295344133330640e-01 3.3248749074406434e+00 0 2 -1
629 45 21 3.9800000000000002e-01 2.1639511684901258e+01 3.9711360089254879e+00 9.0169579190577611e+00 1 1 0
5097 1241 71 4.2380000000000001e-01 1.7218687455800914e+01 2.7377461144470416e+01 3.8005045281324588e+00 0 0 0
10381 3002 70 -8.4760000000000002e-01 8.0313292086410417e+00 2.1131513576330427e-01 2.6204926248998768e+00 0 2 -1
5949 1525 71 4.2380000000000001e-01 3.6095955444267971e+00 2.6615277819287545e+01 7.1047030414169461e+00 1 -1 1
2092 239 70 -8.4760000000000002e-01 7.3578885425179874e-01 2.9526144684091634e+01 9.1622598732745997e-01 0 0 -1
1889 172 71 4.2380000000000001e-01 2.5368921037756682e+01 2.6526657108825816e+01 6.1042691054319382e+00 0 0 0
1849 158 70 -8.4760000000000002e-01 3.8441567103638965e+00 2.8465816072405769e+01 1.1181345796965726e+01 1 1 0
8584 2403 70 -8.4760000000000002e-01 2.0296706487940764e+01 1.7120182096913754e+00 3.9660700236450244e+00 0 1 0
4034 887 71 4.2380000000000001e-01 4.2637979433371793e+00 2.8142320089148075e+01 5.3376152321251400e+00 1 0 0
617 45 64 1.5800000000000000e-01 1.9206431182495340e+01 3.5273638848119941e+00 9.0267015220284623e+00 1 1 0
8707 2444 70 -8.4760000000000002e-01 2.2950150266128546e+01 9.4240038155981931e-01 3.7771151722796077e+00 0 1 1
619 45 64 1.5800000000000000e-01 2.0413966747724977e+01 3.4138987184770389e+00 6.6348179602552309e+00 1 1 0
626 45 20 3.2000000000000001e-02 2.1291526670124568e+01 2.7283657002065120e+00 6.7514718521794048e+00 1 1 0
625 45 67 -6.3100000000000001e-01 1.9273548574877818e+01 2.7275151445667998e+00 6.1552357595926734e+00 1 1 0
618 45 12 1.6600000000000001e-01 2.0059847983165788e+01 4.2318823623447459e+00 7.9090691494367489e+00 1 1 0
10361 2996 71 4.2380000000000001e-01 1.5763186318339699e+01 2.9131335737900791e+01 6.6373035208674809e+00 -1 0 0
628 45 58 4.1699999999999998e-01 1.9579838877794025e+01 2.2704633444730504e+00 5.3165325503605247e+00 1 1 0
6121 1582 70 -8.4760000000000002e-01 2.0522499850730380e+01 1.0694934064160933e+00 1.2699374851857343e+00 0 1 0
627 45 20 3.2000000000000001e-02 2.0720400956311892e+01 4.1910283690954886e+00 5.8939515669308475e+00 1 1 0
6119 1582 71 4.2380000000000001e-01 2.0222466706079995e+01 1.7494906932458212e+00 1.9389545533232690e+00 0 1 0
10363 2996 70 -8.4760000000000002e-01 1.5581461654689086e+01 2.9500465361205563e+01 5.7258653281616159e+00 -1 0 0
6193 1606 70 -8.4760000000000002e-01 1.1141865681227912e+01 2.8705067450366195e-01 6.6630286160987726e+00 2 1 2
3339 655 71 4.2380000000000001e-01 9.2586292619969157e+00 2.9621324374666859e+01 3.6890318295017557e+00 0 -1 1
621 45 20 3.2000000000000001e-02 1.8352200970728010e+01 3.0913232602440979e+00 8.5289183405789437e+00 1 1 0
8583 2403 71 4.2380000000000001e-01 2.0226719973944274e+01 7.5632029781529808e-01 4.2519790324588573e+00 0 1 0
4035 887 71 4.2380000000000001e-01 5.3204911802396628e+00 2.6899246142485325e+01 5.2683790018739209e+00 1 0 0
1847 158 71 4.2380000000000001e-01 3.1119842581281540e+00 2.8639689774975754e+01 1.0522793225655716e+01 1 1 0
624 45 20 3.1000000000000000e-02 1.9502216892364046e+01 5.1070690578718621e+00 7.6061824928587543e+00 1 1 0
622 45 20 3.2000000000000001e-02 1.8852274257304060e+01 4.2198619895054810e+00 9.8031004603402341e+00 1 1 0
4995 1207 71 4.2380000000000001e-01 1.2165118474556625e+01 2.9214550514393927e+01 1.0526610385935630e+01 1 0 2
9857 2828 71 4.2380000000000001e-01 1.3837321317128183e+01 4.9174659649138891e-01 1.1841932916930263e+01 2 1 2
6120 1582 71 4.2380000000000001e-01 2.0525628272363431e+01 1.6374479750569451e-01 1.6937413507941701e+00 0 1 0
3789 805 71 4.2380000000000001e-01 7.9583559512692155e+00 2.4867659577130897e+01 3.2066042982434131e+00 -1 0 1
9623 2750 71 4.2380000000000001e-01 5.0696709993305547e+00 2.9694721165762541e+01 1.1416100648688783e+01 0 0 2
9770 2799 71 4.2380000000000001e-01 9.1971345796030448e+00 2.7148248453908739e+01 7.0337389501703855e+00 0 1 0
8358 2328 71 4.2380000000000001e-01 6.4542715849194572e+00 2.8045310653013633e+01 9.6893442482093004e+00 0 0 -1
8446 2357 70 -8.4760000000000002e-01 1.8154777458183156e+00 2.8189561688398904e+01 3.3201537376642136e+00 1 0 0
5335 1320 70 -8.4760000000000002e-01 2.6183091235818498e+01 2.8321488251548743e+01 3.4795096427173284e+00 -1 0 0
4718 1115 71 4.2380000000000001e-01 1.3441314063773634e+01 5.3215114143962894e-01 2.7656276079098379e+00 0 1 0
3141 589 71 4.2380000000000001e-01 6.7093808579518566e+00 2.5626819726728506e+01 4.3644798819556598e+00 -1 -1 0
3142 589 70 -8.4760000000000002e-01 6.9101036178912851e+00 2.6581190901337472e+01 4.5855818652517524e+00 -1 -1 0
6192 1606 71 4.2380000000000001e-01 1.0560381517522208e+01 9.1816497584608703e-01 6.1496366663156241e+00 2 1 2
2688 438 71 4.2380000000000001e-01 1.1702254163442213e+01 2.3398724007638055e+01 2.4579358303336867e+00 0 -1 0
9879 2835 71 4.2380000000000001e-01 1.6596010913700932e+00 2.7457949508908161e+01 6.3338633753177369e+00 1 -1 0
2443 356 70 -8.4760000000000002e-01 2.2149322693886804e+00 2.9261040463744354e+01 9.3329508597988635e+00 -1 0 0
7069 1898 70 -8.4760000000000002e-01 1.0114377552514341e+01 1.8002625295231263e+00 4.1037015657717273e+00 0 0 1
9878 2835 71 4.2380000000000001e-01 6.1388020686738820e-01 2.8683838786054324e+01 6.5989864301094698e+00 1 -1 0
8445 2357 71 4.2380000000000001e-01 2.6897197843099478e+00 2.7770185993318616e+01 3.0755624740794123e+00 1 0 0
9880 2835 70 -8.4760000000000002e-01 1.0925745917474126e+00 2.8156340090432845e+01 5.8971339104964269e+00 1 -1 0
9772 2799 70 -8.4760000000000002e-01 8.1979157164918561e+00 2.7157015529850604e+01 6.9952042405737380e+00 0 1 0
3140 589 71 4.2380000000000001e-01 7.4431933179593583e+00 2.6989937433494180e+01 3.8448108627519360e+00 -1 -1 0
2687 438 71 4.2380000000000001e-01 1.0770045112411353e+01 2.4399198401653049e+01 1.5653755984674986e+00 0 -1 0
2689 438 70 -8.4760000000000002e-01 1.0773472657700385e+01 2.3575268610626814e+01 2.1320571328150595e+00 0 -1 0
4036 887 70 -8.4760000000000002e-01 4.4065193697843501e+00 2.7178507763776018e+01 5.5627759526525171e+00 1 0 0
5333 1320 71 4.2380000000000001e-01 2.7108845683967530e+01 2.8372540896905395e+01 3.8541729114286380e+00 -1 0 0
1913 180 71 4.2380000000000001e-01 2.4020241100109565e+01 2.6096691921507826e+01 1.0388435133904773e+01 -1 0 1
3790 805 70 -8.4760000000000002e-01 7.1706921849748850e+00 2.4275583067180058e+01 3.3769906015962148e+00 -1 0 1
3788 805 71 4.2380000000000001e-01 7.2905313174244970e+00 2.3412171626662055e+01 2.8869300334774710e+00 -1 0 1
8444 2357 71 4.2380000000000001e-01 1.6460257145485666e+00 2.8061204813714195e+01 4.2972978155508015e+00 1 0 0
3510 712 71 4.2380000000000001e-01 8.3726554529932891e+00 2.7920027125662276e+01 2.6250551009809433e+00 0 -1 1
5766 1464 71 4.2380000000000001e-01 7.6344640930927765e+00 2.9234448399869621e+01 7.2307323812664510e+00 -1 0 1
3511 712 70 -8.4760000000000002e-01 8.4937949919990707e+00 2.6971673587822377e+01 2.3318797199688346e+00 0 -1 1
9771 2799 71 4.2380000000000001e-01 7.9006135396209549e+00 2.7101460642920134e+01 6.0420378433916992e+00 0 1 0
6286 1637 70 -8.4760000000000002e-01 5.2017910848889493e+00 2.8759047194299459e+01 2.1426633611066754e+00 0 0 0
6285 1637 71 4.2380000000000001e-01 4.8088681567823270e+00 2.9270970738162099e+01 2.9065655018050451e+00 0 0 0
623 45 67 -6.1099999999999999e-01 2.1253309908424239e+01 4.7519199312121607e+00 8.4942034734861682e+00 1 1 0
4014 880 71 4.2380000000000001e-01 8.9487956656233525e+00 2.9374432017986319e+01 1.0575521669803596e+01 0 -1 0
6284 1637 71 4.2380000000000001e-01 6.0451769283829391e+00 2.8311533343284889e+01 2.4400389643030871e+00 0 0 0
9709 2778 70 -8.4760000000000002e-01 1.1962967476423788e+01 1.1164901567524999e+00 4.8843025741607607e-02 0 1 1
9602 2743 71 4.2380000000000001e-01 1.5281154099082878e+01 8.1257157235107780e-01 4.1651584653380560e+00 1 1 0
2569 398 70 -8.4760000000000002e-01 1.1509225889596451e+01 2.7548123464439175e+01 1.1748719434264094e+00 0 -1 -1
630 45 21 4.1699999999999998e-01 1.9021615022800091e+01 2.0108361295218580e+00 1.0163665500219963e+01 1 1 0
3320 649 71 4.2380000000000001e-01 2.3495710023119511e+01 2.6777902502958593e+01 2.6606601102920910e+00 0 0 0
8705 2444 71 4.2380000000000001e-01 2.3360697818196485e+01 9.5439666283151181e-01 2.8653548693773372e+00 0 1 1
1915 180 70 -8.4760000000000002e-01 2.4084011403244531e+01 2.7009920967482952e+01 1.0790860546710258e+01 -1 0 1
2567 398 71 4.2380000000000001e-01 1.1362885726166883e+01 2.8266292774149353e+01 4.9456495679934376e-01 0 -1 -1
3509 712 71 4.2380000000000001e-01 8.7473213802480956e+00 2.6951570151276311e+01 1.3647600837458975e+00 0 -1 1
2568 398 71 4.2380000000000001e-01 1.2246132201595666e+01 2.7820317941982474e+01 1.7936449339467080e+00 0 -1 -1
4784 1137 71 4.2380000000000001e-01 2.4745707122496668e+01 2.5234909166973047e+01 7.8397735089519438e+00 0 0 -1
5950 1525 70 -8.4760000000000002e-01 2.8174118827019585e+00 2.6747126326247258e+01 7.7005736024820770e+00 1 -1 1
6502 1709 70 -8.4760000000000002e-01 1.4072865111217894e+01 2.8498446841785924e+01 2.1757299096159053e+00 1 -1 -1
7068 1898 71 4.2380000000000001e-01 1.0774745934425942e+01 1.4099567058911828e+00 3.4621598603834638e+00 0 0 1
9692 2773 71 4.2380000000000001e-01 2.1854587044248547e+01 2.9378870330357788e+01 1.0556743792357860e+01 1 0 1
2091 239 71 4.2380000000000001e-01 8.9712330157157705e-01 2.9010284962086644e+01 1.7575705462667501e+00 0 0 -1
6500 1709 71 4.2380000000000001e-01 1.4442862861014824e+01 2.8669380979150286e+01 1.2625570467740170e+00 1 -1 -1
5948 1525 71 4.2380000000000001e-01 3.0872942499287412e+00 2.6597710024301993e+01 8.6518034808250750e+00 1 -1 1
3340 655 70 -8.4760000000000002e-01 8.3140038844643716e+00 2.9310137447382740e+01 3.7931742988085602e+00 0 -1 1
8357 2328 71 4.2380000000000001e-01 7.9754275904415071e+00 2.7454967945506983e+01 9.6244875322562056e+00 0 0 -1
5767 1464 70 -8.4760000000000002e-01 7.5983176679582867e+00 2.9965050141252409e+01 6.5488858269366768e+00 -1 0 1
6696 1774 71 4.2380000000000001e-01 7.5064621036803816e+00 3.4747509576239405e-01 1.1712562593044241e+01 2 0 -1
4379 1002 71 4.2380000000000001e-01 1.6585876248565594e+01 1.7401951423442248e+00 1.0379829695565698e+01 0 1 1
1914 180 71 4.2380000000000001e-01 2.4886350836943826e+01 2.7480609374850683e+01 1.0423838785474715e+01 -1 0 1
1891 172 70 -8.4760000000000002e-01 2.4704967638590315e+01 2.5796814993343716e+01 5.9414912245168168e+00 0 0 0
2300 309 71 4.2380000000000001e-01 2.6196428771457867e+01 2.6967048981777321e+01 9.1337270969187472e+00 0 0 0
7896 2174 71 4.2380000000000001e-01 2.9320187364486731e+01 2.8877304539588426e+01 1.0365126208666496e-01 1 0 1
3322 649 70 -8.4760000000000002e-01 2.4188329407866746e+01 2.6579326661077101e+01 3.3540907980340733e+00 0 0 0
7288 1971 70 -8.4760000000000002e-01 2.9422140137577632e+01 2.9353696192102714e+01 6.3625328994178529e+00 1 -1 0
8359 2328 70 -8.4760000000000002e-01 7.4105361682663737e+00 2.8225494578180360e+01 9.9197612465525058e+00 0 0 -1
2302 309 70 -8.4760000000000002e-01 2.6533398931238466e+01 2.7615657927444889e+01 9.8161915157130561e+00 0 0 0
4786 1137 70 -8.4760000000000002e-01 2.5412290293951191e+01 2.4760818078615294e+01 8.4150171269786860e+00 0 0 -1
4785 1137 71 4.2380000000000001e-01 2.5608485544333856e+01 2.3860952181530017e+01 8.0254672743421747e+00 0 0 -1
5096 1241 71 4.2380000000000001e-01 1.5676202073954670e+01 2.7254864742446159e+01 3.2786467320997321e+00 0 0 0
7067 1898 71 4.2380000000000001e-01 1.0406897266156523e+01 2.7202257798054856e+00 4.3646613902417322e+00 0 0 1
1890 172 71 4.2380000000000001e-01 2.4648533274419819e+01 2.5610215569873475e+01 4.9606769523494370e+00 0 0 0
5098 1241 70 -8.4760000000000002e-01 1.6258159815108488e+01 2.7469399698530179e+01 4.0630574778930582e+00 0 0 0
3321 649 71 4.2380000000000001e-01 2.5026507901268591e+01 2.7081534493273534e+01 3.1413810923412600e+00 0 0 0
2441 356 71 4.2380000000000001e-01 1.2920920201899770e+00 2.8955699443864642e+01 9.0981470573563268e+00 -1 0 0
2772 466 71 4.2380000000000001e-01 1.1565761807043703e+01 2.2899194160648957e+00 1.1107207773827183e+01 0 0 0
6501 1709 71 4.2380000000000001e-01 1.3848854412577815e+01 2.9369428163460498e+01 2.6130069702917678e+00 1 -1 -1
4380 1002 71 4.2380000000000001e-01 1.6894067249393540e+01 1.5821521041243605e+00 8.7840016102580041e+00 0 1 1
4418 1015 71 4.2380000000000001e-01 2.3723384484971959e+01 2.9206607972473559e+01 6.7584367435157489e-01 0 0 0
9604 2743 70 -8.4760000000000002e-01 1.5442198301458349e+01 6.5939047930920758e-01 3.1901711091643743e+00 1 1 0
4381 1002 70 -8.4760000000000002e-01 1.7199459428639784e+01 1.3332675371601281e+00 9.7031274451858938e+00 0 1 1
9603 2743 71 4.2380000000000001e-01 1.6409004287854717e+01 4.5227527730672934e-01 3.0405398504671441e+00 1 1 0
620 45 67 -6.3100000000000001e-01 1.9858943139715485e+01 2.5287118142305669e+00 9.8131226876605808e+00 1 1 0
8582 2403 71 4.2380000000000001e-01 2.1260113931286512e+01 1.9592515783003623e+00 3.8625179844924302e+00 0 1 0
5334 1320 71 4.2380000000000001e-01 2.5755380091439491e+01 2.9224324055579793e+01 3.5236839598126179e+00 -1 0 0
10362 2996 71 4.2380000000000001e-01 1.5305785696863479e+01 2.8758555643728378e+01 5.1146590276628778e+00 -1 0 0
4720 1115 70 -8.4760000000000002e-01 1.2468119919046702e+01 6.0340519380086266e-01 2.9842963925514767e+00 0 1 0
5410 1345 70 -8.4760000000000002e-01 4.3924443681646377e+00 2.9971038262425399e+01 5.0400290493169324e+00 1 0 1
9708 2778 71 4.2380000000000001e-01 1.2397533133629414e+01 1.0001380059906553e+00 9.4193600546479606e-01 0 1 1
9859 2828 70 -8.4760000000000002e-01 1.4268809916532089e+01 1.3474142835054319e+00 1.1556187296218519e+01 2 1 2
3338 655 71 4.2380000000000001e-01 7.9620903831519376e+00 2.9604634342151268e+01 4.6816721889396193e+00 0 -1 1
7286 1971 71 4.2380000000000001e-01 2.9501364253748250e+01 2.9415630642804558e+01 5.3676018360901745e+00 1 -1 0
2771 466 71 4.2380000000000001e-01 1.0018630577241883e+01 1.9515285056097065e+00 1.1505332466201265e+01 0 0 0
1848 158 71 4.2380000000000001e-01 3.4655829473632145e+00 2.8013771121107979e+01 1.1989019785796463e+01 1 1 0
136 10 20 3.2000000000000001e-02 2.2478870545552272e+01 2.9965235115628463e+01 3.3536194998130573e+00 1 0 0
8706 2444 71 4.2380000000000001e-01 2.2953214254125328e+01 7.4054992078984583e-03 4.1317638167471848e+00 0 1 1
1244 89 58 4.1699999999999998e-01 2.1167739010422025e+01 4.1049174077387340e-01 6.2497736906266255e-03 0 1 1
10391 3006 71 4.2380000000000001e-01 9.2182046156893129e+00 1.3629048640462924e+00 2.2083238378401312e+01 0 1 1
10393 3006 70 -8.4760000000000002e-01 8.9420285896133045e+00 4.0698585752171712e-01 2.1983510414737630e+01 0 1 1
5062 1229 70 -8.4760000000000002e-01 2.8474029529253425e+01 1.9630462781224658e+01 1.9982906413308957e+01 -1 0 0
5052 1226 71 4.2380000000000001e-01 1.9488370509048998e+01 2.9765339041355343e+01 1.9198227324469634e+01 1 0 -1
2291 306 71 4.2380000000000001e-01 2.4764811459440562e+01 1.9627753839040814e+01 1.4624026366179583e+01 -1 0 1
5061 1229 71 4.2380000000000001e-01 2.8016243707209593e+01 1.9468675012844905e+01 2.0857124273837290e+01 -1 0 0
2969 532 71 4.2380000000000001e-01 1.1071774515963655e+01 2.5643429579998632e+01 2.3250553889330892e+01 1 -1 0
2428 351 70 -8.4760000000000002e-01 1.7711464198529986e-01 2.2381406225870506e+01 2.3182323269369061e+01 1 0 1
9913 2846 70 -8.4760000000000002e-01 6.2419123656245219e+00 5.1654001534347467e+00 1.5701229402045408e+01 -1 0 1
2426 351 71 4.2380000000000001e-01 2.8392486368914460e-01 2.3088479643171276e+01 2.2483296259547096e+01 1 0 1
9912 2846 71 4.2380000000000001e-01 6.7090917255156510e+00 4.6281945658534900e+00 1.4998980400438720e+01 -1 0 1
5060 1229 71 4.2380000000000001e-01 2.7827680269942785e+01 2.0039745004332023e+01 1.9338918294217507e+01 -1 0 0
1831 152 70 -8.4760000000000002e-01 1.1454616372599794e+01 4.3668648117299744e+00 1.7158033232077010e+01 -1 1 0
1180 85 67 -6.3100000000000001e-01 1.3371923271901252e+01 2.9464846090959664e+01 1.5886464239075515e+01 1 0 0
4644 1090 71 4.2380000000000001e-01 1.5761121470881163e+01 1.3245790854166377e+00 1.9259863199805711e+01 1 1 0
9911 2846 71 4.2380000000000001e-01 5.6581682549616561e+00 5.8496261892425663e+00 1.5264105217565769e+01 -1 0 1
5921 1516 71 4.2380000000000001e-01 5.0568496581889146e+00 1.0260162578375054e+00 1.5603820869764940e+01 1 1 -1
7647 2091 71 4.2380000000000001e-01 1.9064616122591104e+01 2.7864139396046752e+01 1.9895636632223450e+01 0 -1 1
5923 1516 70 -8.4760000000000002e-01 5.6432579822730782e+00 1.3969217469693127e+00 1.4883713391865944e+01 1 1 -1
2046 224 71 4.2380000000000001e-01 8.5686679704096278e+00 1.0518489106896580e+00 1.9394076774015819e+01 -2 1 0
6737 1788 71 4.2380000000000001e-01 9.3337675372710915e+00 3.4062150314759814e+00 1.9789894569770780e+01 0 1 0
6739 1788 70 -8.4760000000000002e-01 9.5699330396514597e+00 2.4468057895497557e+00 1.9944036628683456e+01 0 1 0
6738 1788 71 4.2380000000000001e-01 1.0528908884536294e+01 2.2968019603714431e+00 1.9703486833494939e+01 0 1 0
2293 306 70 -8.4760000000000002e-01 2.4783035119437372e+01 1.8638033590289940e+01 1.4765877451646647e+01 -1 0 1
7705 2110 70 -8.4760000000000002e-01 9.3889594358919233e+00 5.0770694591857799e+00 1.8773678425053127e+01 1 1 0
3639 755 71 4.2380000000000001e-01 8.4243248868127232e+00 1.2911925449618209e+00 1.3938725715410321e+01 1 0 0
3638 755 71 4.2380000000000001e-01 9.4050114320641178e+00 1.3982685385379494e+00 1.5240038564847602e+01 1 0 0
3640 755 70 -8.4760000000000002e-01 8.4998553219011743e+00 1.6228172062343689e+00 1.4879108747594749e+01 1 0 0
8587 2404 70 -8.4760000000000002e-01 1.4172917850262262e+01 2.7591796229435852e+00 1.3851519731318021e+01 0 1 1
1178 85 12 1.6600000000000001e-01 1.3772242167287553e+01 2.9881742208014000e+01 1.8266895499054300e+01 1 0 0
8586 2404 71 4.2380000000000001e-01 1.3223531314738826e+01 2.8945125606249880e+00 1.3568057453982320e+01 0 1 1
5889 1505 71 4.2380000000000001e-01 1.2094341015813832e+01 2.6525179180284897e+00 1.7847211173334038e+01 0 1 1
8585 2404 71 4.2380000000000001e-01 1.4260291561127918e+01 2.9550346322155234e+00 1.4828252593178018e+01 0 1 1
5890 1505 70 -8.4760000000000002e-01 1.2025065566562368e+01 1.8879783765928337e+00 1.8488054991463127e+01 0 1 1
9853 2826 70 -8.4760000000000002e-01 8.4789532337970219e-01 7.0440739948299569e-01 1.2128864983879641e+01 1 1 0
6517 1714 70 -8.4760000000000002e-01 2.0375273447405508e+01 1.7073291930733781e+01 1.9194458985370279e+01 1 0 -1
10392 3006 71 4.2380000000000001e-01 8.5100359800693113e+00 2.7620540510754021e-01 2.1091165817379249e+01 0 1 1
9277 2634 70 -8.4760000000000002e-01 1.1298749799931004e+01 3.9652129244976670e+00 1.4066784699290858e+01 0 1 0
6222 1616 71 4.2380000000000001e-01 8.5320397762145568e+00 2.9125897190151754e+01 2.2106193075963940e+01 1 -1 0
7704 2110 71 4.2380000000000001e-01 9.3032259699361468e+00 6.0629339456149642e+00 1.8629730507969370e+01 1 1 0
1830 152 71 4.2380000000000001e-01 1.1102268697597916e+01 4.3618858723624800e+00 1.6222177228077253e+01 -1 1 0
9276 2634 71 4.2380000000000001e-01 1.1423738468321385e+01 4.7527213396910648e+00 1.3463287906706647e+01 0 1 0
9275 2634 71 4.2380000000000001e-01 1.0605519610098852e+01 3.3563988672527807e+00 1.3681067683959075e+01 0 1 0