LAMMPS data file via write_data, version 21 Feb 2017, timestep = 10000

10411 atoms
71 atom types
7399 bonds
254 bond types
5512 angles
155 angle types
3375 dihedrals
47 dihedral types
125 impropers
5 improper types

0.0000000000000000e+00 6.0000000000000000e+01 xlo xhi
0.0000000000000000e+00 6.0000000000000000e+01 ylo yhi
0.0000000000000000e+00 6.0000000000000000e+01 zlo zhi

Masses

1 15.9994
2 15.9994
3 15.9994
4 15.9994
5 15.9994
6 14.0067
7 14.0067
8 14.0067
9 14.0067
10 14.0067
11 14.0067
12 12.011
13 12.011
14 13.019
15 14.027
16 15.035
17 16.043
18 14.027
19 12.011
20 1.008
21 1.008
22 1
23 32.06
24 63.546
25 63.546
26 55.847
27 65.37
28 24.305
29 40.08
30 39.948
31 18.9984
32 35.453
33 79.904
34 12.011
35 15.9994
36 22.9898
37 35.453
38 12.011
39 35.453
40 1.008
41 32.06
42 12.011
43 15.9994
44 12.011
45 35.453
46 18.9984
47 12.011
48 13.019
49 15.9994
50 12.011
51 15.9994
52 14.0067
53 15.035
54 126.904
55 35.453
56 10.811
57 78.96
58 1.008
59 35.453
60 79.904
61 15.9994
62 14.0067
63 12.011
64 12.011
65 14.0067
66 14.0067
67 15.9994
68 28.08
69 30.9738
70 15.9994
71 1.008

Pair Coeffs # lj/cut/coul/long

1 0.305714 2.76007
2 0.412295 2.62585
3 0.203061 2.95484
4 0.252656 2.84916
5 0.155394 3.16565
6 0.152915 3.13647
7 0.0700622 3.5722
8 0.152915 3.13647
9 0.104651 3.34113
10 0.152915 3.13647
11 0.152915 3.13647
12 0.0663015 3.58118
13 0.00167194 6.63949
14 0.0226791 5.01918
15 0.098122 4.07038
16 0.207254 3.74792
17 0.302012 3.70995
18 0.11455 3.95474
19 0.120138 3.74119
20 0.0282937 2.37341
21 0 0
22 0 0
23 0.455513 3.30769
24 2.039 1.5184
25 2.039 1.5184
26 0 0
27 1.107 1.68112
28 0.0747249 1.93323
29 0.121156 2.81311
30 0.238148 3.40984
31 0.10897 2.94006
32 0.300087 3.46982
33 0.69792 3.6508
34 0.243126 3.60124
35 0.131455 3.17694
36 0.00509651 3.12117
37 0.162149 4.09571
38 0.101741 3.40006
39 0.299511 3.44
40 0.0197496 2.20219
41 0.310038 3.55995
42 0.207254 3.74792
43 0.409923 2.63004
44 0.0544087 3.7739
45 0.270582 3.44757
46 0.0828967 3.07717
47 0.0970049 3.3611
48 0.117014 3.91992
49 0.203061 2.95484
50 0.105027 3.74991
51 0.210013 2.95998
52 0.169966 3.25006
53 0.207254 3.74792
54 0.836845 3.84961
55 0.329921 3.26983
56 0.0663015 3.58118
57 0.455513 3.30769
58 0 0
59 0.329921 3.26983
60 0.580843 3.89995
61 0.119432 3.40025
62 0.1399 3.9019
63 0.0734574 3.52053
64 0.245018 2.81144
65 0.142655 4.06776
66 0.219779 3.64529
67 0.119497 3.1
68 0.584786 3.38557
69 0.584786 3.38557
70 0.1553 3.166
71 0 0

Bond Coeffs # harmonic

1 375.239 1
2 446.941 1
3 349.274 1.09
4 1109.29 1.12
5 600.242 1.23
6 500.418 1.25
7 499.732 1.32
8 375.003 1.33
9 448.144 1.33
10 498.877 1.33
11 450.617 1.34
12 502.116 1.34
13 450.906 1.36
14 500.679 1.38
15 399.904 1.39
16 498.726 1.39
17 400.057 1.4
18 399.792 1.43
19 450.132 1.43
20 300.222 1.435
21 449.843 1.47
22 299.976 1.48
23 399.968 1.48
24 450.226 1.48
25 450.108 1.5
26 299.844 1.52
27 400.034 1.53
28 299.851 1.61
29 299.727 1.63
30 205.976 1.78
31 449.816 1.78
32 449.828 1.83
33 300.045 1.87
34 59.9679 1.98
35 60.0382 2
36 500.307 2.04
37 63.0357 2.21
38 554.493 1
39 349.928 1.1
40 599.794 1.758
41 449.829 1.53
42 444.341 1.93799
43 599.679 1.76
44 501.026 1.265
45 448.656 1.35
46 555.129 1.63299
47 350.249 2.33839
48 600.161 2.90283
49 445.884 2.79388
50 443.815 2.91189
51 409.328 2.077
52 600.173 2.87407
53 88.4321 1.1
54 56.1663 1.84
55 513.862 1.01
56 310.707 1.41
57 442.161 1.02
58 239.006 1.46
59 513.862 1.29
60 442.161 0.972
61 812.62 1.22
62 466.061 1.22
63 239.006 1.54
64 179.254 1.56
65 227.055 1.54
66 106.358 1.76
67 131.453 1.69
68 203.155 1.75
69 203.155 1.51
70 143.403 1.57
71 179.254 0.971
72 191.205 1.5
73 262.906 1.45
74 549.713 1.52
75 83.652 1.03
76 191.205 1.74
77 191.205 1.72
78 227.055 1.64
79 203.155 1.67
80 191.205 1.66
81 215.105 1.65
82 513.862 1.31
83 155.354 1.01
84 35.8509 1.89
85 101.577 1.93
86 155.354 1.36
87 167.304 1.79
88 114.723 1.35
89 155.354 1.39
90 203.155 1.38
91 227.055 0.983
92 155.354 1.3
93 418.26 1.08
94 155.354 1.9
95 1314.53 1.16
96 143.403 1.8
97 155.354 1.42
98 478.011 0.984
99 119.503 1.08
100 119.503 1.91
101 418.26 1.03
102 525.813 1.28
103 131.453 1.22
104 143.403 1.11
105 1195.03 1.21
106 466.061 1.07
107 956.023 1.21
108 693.117 1.21
109 87.2371 1.85
110 394.359 1.11
111 109.943 2.09
112 131.453 1.82
113 99.1874 1.96
114 56.1663 1.86
115 167.304 1.21
116 167.304 1.28
117 143.403 1.71
118 131.453 1.6
119 454.111 1.21
120 41.826 1.61
121 131.453 1.94
122 155.354 1.59
123 143.403 2.1
124 119.503 2.12
125 57.3614 2.13
126 203.155 1.26
127 1195.03 1.14
128 191.205 1.23
129 788.719 1.3
130 239.006 1.31
131 59.7514 2.04
132 82.457 1.34
133 621.415 0.938
134 310.707 1.16
135 34.6558 2.07
136 60.9465 1.16
137 93.2122 2.16
138 43.021 2.23
139 23.9006 2.05
140 896.272 1.19
141 728.967 1.47
142 394.359 1.57
143 1195.03 1.18
144 54.9713 1.87
145 1063.58 1.17
146 215.105 1.13
147 59.7514 2.02
148 179.254 1.07
149 250.956 1.14
150 155.354 1.06
151 537.763 1.46
152 812.62 1.17
153 92.0172 2.15
154 239.006 1.04
155 60.9465 1.4
156 1314.53 1.11
157 466.061 1.56
158 752.868 1.49
159 501.912 1.54
160 35.8509 2.17
161 35.8509 2.27
162 669.216 1.45
163 764.818 1.25
164 848.47 1.27
165 561.663 1.16
166 1434.03 1.14
167 501.912 1.17
168 537.763 1.19
169 920.172 1.14
170 227.055 1.24
171 1434.03 1.13
172 89.6272 2.91
173 57.3614 2.24
174 418.26 0.743
175 239.006 1.2
176 111.138 2.33
177 96.7973 2.42
178 83.652 1.32
179 1159.18 1.2
180 1314.53 1.2
181 430.21 1.58
182 53.7763 1.47
183 1.55354 2.77
184 5.13862 2.25
185 100.382 2.18
186 50.1912 1.52
187 93.2122 2.19
188 27.4857 1.48
189 1912.05 1.07
190 8.60421 2.8
191 87.2371 2.52
192 0.669216 2.79
193 812.62 1.16
194 1.79254 2.68
195 406.31 1.59
196 119.503 1.18
197 34.6558 2.54
198 1792.54 1.1
199 824.57 1.29
200 33.4608 2.44
201 107.553 2.41
202 112.333 2.36
203 20.3155 1.43
204 2.27055 2.57
205 19.1205 2.47
206 0.764818 2.71
207 1553.54 1.12
208 3.70459 2.75
209 501.912 1.14
210 0.717017 2.86
211 10.5163 2.64
212 1912.05 0.985
213 1.91205 2.61
214 7.40918 2.62
215 59.7514 2.46
216 3.58509 2.66
217 1.31453 2.72
218 58.5564 1.63
219 573.614 1.12
220 37.0459 2.32
221 16.7304 1.44
222 1553.54 1.16
223 7.17017 2.69
224 10.0382 2.49
225 3.22658 2.92
226 0.82457 2.29
227 9.79924 2.4
228 1.03967 2.37
229 1.55354 2.94
230 5.85564 2.95
231 1.67304 2.96
232 0.0131453 2.56
233 5.25813 2.59
234 15.5354 2.38
235 836.52 1.12
236 1.91205 2.5
237 2.39006 2.3
238 585.564 1.04
239 3.34608 2.99
240 0.967973 2.34
241 1.07553 2.98
242 2.27055 2.74
243 1063.58 1.16
244 812.62 1.5
245 1.31453 2.84
246 0.322658 2.82
247 908.222 1.23
248 466.061 1.05
249 3.34608 2.88
250 1434.03 1.18
251 1673.04 1.15
252 6.33365 2.9
253 0 0
254 100 1

Angle Coeffs # harmonic

1 45.3116 90
2 50.0917 90
3 47.7712 96
4 54.9551 100
5 47.5559 103
6 55.0345 104
7 50.1709 108
8 30.1731 109.5
9 33.8897 109.5
10 40.2609 109.5
11 45.0394 109.5
12 47.694 109.5
13 55.1272 109.5
14 47.635 109.6
15 55.1139 111
16 55.0997 113
17 4.824 115
18 45.0699 115
19 59.7937 115
20 44.8085 116
21 59.7719 116
22 60.1639 117
23 34.88 120
24 39.8095 120
25 45.1871 120
26 47.4278 120
27 50.1166 120
28 59.9756 120
29 69.8346 120
30 60.0726 121
31 60.091 122
32 34.8146 123
33 59.8929 124
34 30.0075 125
35 60.0779 125
36 44.9139 126
37 49.998 126
38 60.166 126
39 50.1189 132
40 47.5187 155
41 28.4971 180
42 45.9951 109.5
43 52.4767 107.57
44 65.472 111.3
45 55.0189 97.4
46 55.0247 106.75
47 47.5019 108.53
48 65.5335 109.5
49 54.9566 107.6
50 47.4817 109.5
51 54.9931 110.3
52 55.0234 111.4
53 60.044 117.2
54 60.0023 121.4
55 48.24 180
56 180.46 109
57 192.229 106
58 145.153 126
59 145.153 96.2
60 156.922 114
61 203.998 119
62 239.306 130
63 298.152 107
64 156.922 134
65 239.306 101
66 286.382 113
67 368.766 134
68 356.997 119
69 333.459 126
70 251.075 89.6
71 380.536 114
72 286.382 135
73 145.153 88.3
74 133.384 60
75 380.536 179
76 251.075 180
77 470.766 178
78 47.0766 59.9
79 47.0766 60.3
80 251.075 124
81 706.149 118
82 117.691 144
83 627.688 123
84 470.766 118
85 333.459 94.8
86 90.2301 175
87 156.922 82.8
88 117.691 77.6
89 239.306 145
90 251.075 50.8
91 380.536 104
92 262.844 84.4
93 215.768 63.3
94 215.768 61
95 298.152 173
96 192.229 173
97 82.384 50.9
98 431.535 127
99 62.7688 67.8
100 156.922 180
101 588.457 118
102 30.1731 110
103 227.537 94.8
104 431.535 173
105 34.5228 78.5
106 70.6149 138
107 70.6149 168
108 156.922 167
109 18.046 149
110 333.459 144
111 356.997 148
112 321.69 144
113 356.997 148
114 321.69 147
115 333.459 144
116 5099.96 60.8
117 1451.53 68
118 298.152 161
119 156.922 155
120 309.921 154
121 215.768 75.3
122 309.921 64.7
123 549.227 173
124 3334.59 45.8
125 863.071 123
126 549.227 123
127 470.766 166
128 380.536 166
129 203.998 139
130 66.6918 161
131 7.45379 44.9
132 25.1075 84.8
133 192.229 161
134 333.459 70.4
135 627.688 173
136 1.92229 51.6
137 21.5768 73.3
138 7.45379 174
139 470.766 132
140 145.153 69.9
141 15.6922 144
142 1922.29 97.9
143 392.305 155
144 588.457 104
145 117.691 149
146 509.996 157
147 286.382 166
148 333.459 89.8
149 392.305 79.1
150 6669.18 45.2
151 470.766 101
152 745.379 125
153 168.691 49.6
154 509.996 112
155 100 109.47

Dihedral Coeffs # harmonic

1 0.638145 -1 1
2 0.81501 -1 1
3 1.18786 -1 1
4 1.40057 -1 1
5 2.2347 -1 1
6 2.2586 -1 1
7 0.666826 1 1
8 1.27868 1 1
9 0.365679 -1 2
10 1.40057 -1 2
11 1.69933 -1 2
12 3.9914 -1 2
13 5.73614 -1 2
14 8.00669 -1 2
15 9.99044 -1 2
16 0 1 2
17 0.0999044 1 2
18 0.499522 1 2
19 0.750478 1 2
20 1.21654 1 2
21 3.9914 1 2
22 0.250956 1 3
23 0.301147 1 3
24 0.310707 1 3
25 0.604685 1 3
26 0.700287 1 3
27 0.762428 1 3
28 0.872371 1 3
29 0.901052 1 3
30 0.932122 1 3
31 0.999044 1 3
32 1.12094 1 3
33 1.30019 1 3
34 1.41491 1 3
35 1.83795 1 3
36 2.06023 1 3
37 2.27055 1 3
38 0 1 4
39 0.239006 -1 6
40 0.239006 1 6
41 0.901052 1 6
42 0.83652 -1 2
43 0.669216 1 3
44 0.167304 -1 6
45 0.0956023 1 6
46 0.239006 -1 3
47 0 1 1

Improper Coeffs # harmonic

1 20.0075 0
2 40.0151 35.2644
3 80.0302 0
4 20.0075 180
5 40.0151 -35.2644

Atoms # full

6201 1609 71 4.2380000000000001e-01 6.1873710770750909e+00 5.2686786259413747e+00 3.3665631819501334e+00 1 0 0
7973 2200 71 4.2380000000000001e-01 5.1583557203888448e+00 2.6422286775382946e+00 5.0730081852416991e+00 1 0 1
7975 2200 70 -8.4760000000000002e-01 4.6451222328058090e+00 2.5979047496598007e+00 5.9293345318665018e+00 1 0 1
2058 228 71 4.2380000000000001e-01 1.0997367284374866e+01 2.0284583222679277e+01 4.3276947472773125e-01 0 0 0
7974 2200 71 4.2380000000000001e-01 3.7394957057043170e+00 2.9988244629994205e+00 5.7960228830037597e+00 1 0 1
1461 105 20 3.2000000000000001e-02 3.4567658621879258e+00 2.9124684314589864e+00 9.8140035305790907e-01 1 0 1
8131 2252 70 -8.4760000000000002e-01 2.2706456474408108e+00 1.0237538563738686e+00 9.6456331586337534e+00 1 1 0
1457 105 64 1.5800000000000000e-01 4.1121364198237096e+00 3.6120630890620031e+00 5.0577755889786480e-01 1 0 1
5126 1251 71 4.2380000000000001e-01 5.9456043262683300e-01 3.8932986525344102e+00 7.8119805614124909e+00 0 1 1
475 34 21 3.9800000000000002e-01 1.7930083598069388e+01 3.3681928001900103e+00 3.1243243986011571e-01 0 0 0
5128 1251 70 -8.4760000000000002e-01 9.8964392327608186e-01 3.1337378026325626e+00 7.2965735341182407e+00 0 1 1
3855 827 71 4.2380000000000001e-01 4.0405007225762883e+00 3.5914520811195296e+00 7.9410788577032685e+00 0 1 0
2168 265 71 4.2380000000000001e-01 1.2693040905760929e+01 2.2300917406581995e+01 1.4435451611132841e+01 0 0 0
48 4 20 3.2000000000000001e-02 2.9868328228400358e+01 1.8655658233688244e+00 9.9964166823387668e+00 0 0 0
8324 2317 71 4.2380000000000001e-01 2.6208755602822379e+01 1.0269306620759977e-01 9.1287919012052221e-01 0 1 0
5729 1452 71 4.2380000000000001e-01 6.9949538679641168e-02 5.4246524114394559e+00 9.1705231787029629e+00 0 1 1
5127 1251 71 4.2380000000000001e-01 1.8930336112792321e+00 2.9159583751685103e+00 7.6641700634137466e+00 0 1 1
10159 2928 70 -8.4760000000000002e-01 8.5802941695448359e-02 2.5636521735352225e+01 1.5922561820784038e+00 1 0 1
10157 2928 71 4.2380000000000001e-01 6.7848976199165634e-02 2.5372546765765609e+01 2.5559277526665838e+00 1 0 1
1462 105 20 3.2000000000000001e-02 3.6415769728104062e+00 4.4550210957825893e+00 6.6021729012108246e-02 1 0 1
2049 225 71 4.2380000000000001e-01 1.8618600235291882e+00 6.4378208086879969e+00 5.3455896986562168e+00 0 0 0
2050 225 70 -8.4760000000000002e-01 2.5678750881382144e+00 6.9899855500850796e+00 4.9036339132541320e+00 0 0 0
8708 2445 71 4.2380000000000001e-01 7.1883526687643888e+00 2.8988332309090764e-01 6.1768945109455018e+00 1 1 0
6234 1620 71 4.2380000000000001e-01 3.9834289955270479e+00 6.6434430855753979e+00 3.4612113248539895e+00 1 0 0
3303 643 71 4.2380000000000001e-01 1.5117046850652764e+01 2.2683814342165601e+01 3.2053877261218537e+00 0 0 1
671 48 21 3.9800000000000002e-01 2.3455012228138539e+01 8.3377578785296391e-01 1.4722632877794014e+01 0 1 0
1470 105 21 4.1699999999999998e-01 5.0100370161499228e+00 4.7472068922359449e+00 1.8151103634534387e+00 1 0 1
1460 105 67 -6.3100000000000001e-01 5.0515898926852474e+00 3.9078056144471476e+00 1.5510120448098410e+00 1 0 1
5382 1336 71 4.2380000000000001e-01 9.1349698061688773e+00 2.2593892957242616e+00 6.4919598904501239e+00 0 1 1
7890 2172 71 4.2380000000000001e-01 2.9834939373478100e+01 7.3653675187554164e+00 8.9881238755984671e-01 0 0 1
6235 1620 70 -8.4760000000000002e-01 4.1787858382918435e+00 6.1260556145413076e+00 2.6288567587567151e+00 1 0 0
467 34 20 3.2000000000000001e-02 2.2012818502317852e+01 3.9105139003429330e+00 5.2045209544213489e-01 0 0 0
1465 105 67 -6.3100000000000001e-01 3.7870447475836051e+00 8.0307766664896219e-01 2.4106301703062938e-02 1 0 1
7806 2144 71 4.2380000000000001e-01 2.9731456445976647e+01 9.7918030880550422e+00 7.3675896439654229e+00 0 0 1
1878 168 71 4.2380000000000001e-01 5.9507933871162484e+00 8.2404671998657797e+00 7.4092139206007912e-01 0 0 0
1879 168 70 -8.4760000000000002e-01 5.4706067727315322e+00 7.3985614731340563e+00 4.9743903009340779e-01 0 0 0
4115 914 71 4.2380000000000001e-01 7.3530498041021968e+00 2.9949080919817906e+01 1.5661502831443832e+00 0 0 0
7788 2138 71 4.2380000000000001e-01 2.8796168256254514e+01 9.5887220018585442e+00 4.0539989345239454e-02 0 0 1
6233 1620 71 4.2380000000000001e-01 4.5556131230411516e+00 6.7396948836625930e+00 1.9359517975734726e+00 1 0 0
162 12 20 3.1000000000000000e-02 1.5969800260491137e+01 2.6378966890905396e+01 1.0213289321628324e+01 0 0 0
2463 363 71 4.2380000000000001e-01 2.1783392750462962e+00 4.4315239812466500e-01 2.9326623756018395e+00 0 0 0
6243 1623 71 4.2380000000000001e-01 1.7853216364398410e+00 5.5757120726829461e+00 2.9310111331184641e+00 1 0 0
8446 2357 70 -8.4760000000000002e-01 7.2061240045240487e+00 5.3736092148636141e+00 1.3831437528867177e-01 1 1 0
2048 225 71 4.2380000000000001e-01 2.8955681717685509e+00 7.6851280743413204e+00 5.5424313243129131e+00 0 0 0
1792 139 70 -8.4760000000000002e-01 2.9319292456438706e+01 7.6574064798290333e+00 1.0592656981947171e+01 0 0 0
6962 1863 71 4.2380000000000001e-01 1.8905502617517413e+01 9.0072375463551104e+00 1.7319971231018147e-01 0 0 0
4302 976 71 4.2380000000000001e-01 1.8307331456881386e+00 3.3257221415789342e+00 4.5432627385109869e+00 0 1 0
8231 2286 71 4.2380000000000001e-01 6.8601155991717135e+00 1.5881422561980787e+00 3.5044549621924319e+00 0 1 0
8233 2286 70 -8.4760000000000002e-01 5.9853177846232741e+00 2.0329702368675444e+00 3.6929374416610479e+00 0 1 0
5356 1327 70 -8.4760000000000002e-01 8.3824374531109846e+00 3.6662984276588917e+00 2.7098077240310285e+00 0 1 1
8232 2286 71 4.2380000000000001e-01 5.6372379472222596e+00 2.4517872662920497e+00 2.8550225591803202e+00 0 1 0
5354 1327 71 4.2380000000000001e-01 8.5305350509503022e+00 3.5725477690931888e+00 1.7259652889283716e+00 0 1 1
8351 2326 71 4.2380000000000001e-01 2.6999454813312642e+01 9.6366429044519215e+00 1.1505000917674831e+01 0 1 0
8403 2343 71 4.2380000000000001e-01 3.2873620894067135e+00 2.6114582267316857e+00 1.2156699949042720e+01 1 1 0
380 28 12 1.6600000000000001e-01 2.9647696885482727e+01 2.8626039508996728e+00 1.4489749166201896e+01 0 0 0
6200 1609 71 4.2380000000000001e-01 7.7886990864871644e+00 5.1842662568001536e+00 3.0637468600628703e+00 1 0 0
6202 1609 70 -8.4760000000000002e-01 7.0335858670455442e+00 5.7957434584996088e+00 3.2973443770065107e+00 1 0 0
2020 215 70 -8.4760000000000002e-01 2.9940809233471828e+01 1.1109655874552395e+01 2.4119212689722156e+00 0 0 0
1806 144 71 4.2380000000000001e-01 6.7239478741852201e+00 7.3059477094779348e+00 8.4828400534036366e+00 0 0 0
4301 976 71 4.2380000000000001e-01 2.8958809585335996e+00 4.0203796751634115e+00 3.5205283375946381e+00 0 1 0
2091 239 71 4.2380000000000001e-01 8.2697563536178915e+00 2.4359728039322619e+01 5.0210002234792939e-01 0 0 0
1807 144 70 -8.4760000000000002e-01 7.5014812001547888e+00 6.8501701832262496e+00 8.9145538536639961e+00 0 0 0
1447 104 20 3.2000000000000001e-02 2.8885927759134660e+01 8.1578509758617752e+00 5.3129764285823056e+00 0 0 1
5650 1425 70 -8.4760000000000002e-01 1.0229156214403870e+01 6.7386524486389332e+00 8.2323329469884943e+00 0 1 1
5648 1425 71 4.2380000000000001e-01 1.0573014160861172e+01 7.6653019710244141e+00 8.0848528510863957e+00 0 1 1
5649 1425 71 4.2380000000000001e-01 9.2802045223160281e+00 6.7809745388189011e+00 8.5427641782595423e+00 0 1 1
2170 265 70 -8.4760000000000002e-01 1.2136154715186066e+01 2.2798151905976798e+01 1.3771144026079678e+01 0 0 0
6211 1612 70 -8.4760000000000002e-01 1.3321861315480135e+01 3.2492143674495582e+00 2.1592659804318681e+00 0 0 0
174 13 20 3.2000000000000001e-02 1.6597664145068478e+01 1.9218599933257437e+01 1.3988913761832002e+01 0 0 0
8016 2214 71 4.2380000000000001e-01 1.9919416672720913e-01 2.9304885129198748e+01 5.3515108247684280e+00 1 0 1
6209 1612 71 4.2380000000000001e-01 1.2670350745325216e+01 3.9352798303968872e+00 2.4810053324859780e+00 0 0 0
6210 1612 71 4.2380000000000001e-01 1.4242458482182887e+01 3.4982255570386029e+00 2.4578667501158651e+00 0 0 0
6891 1839 71 4.2380000000000001e-01 7.9585163105763090e+00 8.4500207150941566e+00 1.4464339578497962e+00 0 0 0
6892 1839 70 -8.4760000000000002e-01 7.3348021472924563e+00 8.5176231596686662e+00 2.2243019980422698e+00 0 0 0
6890 1839 71 4.2380000000000001e-01 7.1978908636698842e+00 7.6107881896462768e+00 2.6212584142099313e+00 0 0 0
10144 2923 70 -8.4760000000000002e-01 1.2791243208376907e+01 3.3317864133335808e+00 5.0360801047930517e+00 1 1 1
10142 2923 71 4.2380000000000001e-01 1.2071365744803950e+01 3.8784334756794161e+00 5.4622512457025234e+00 1 1 1
5822 1483 71 4.2380000000000001e-01 1.4542444418801272e+01 3.7071365212763778e+00 6.1477283826849956e+00 0 1 1
6399 1675 71 4.2380000000000001e-01 1.0323393480653962e+01 5.6536634265403141e+00 6.8288255061472105e+00 0 0 0
6400 1675 70 -8.4760000000000002e-01 1.0473178447048715e+01 4.7976910355971309e+00 6.3353239743108380e+00 0 0 0
6398 1675 71 4.2380000000000001e-01 1.0142564310361630e+01 4.0328658003339841e+00 6.8870527740301570e+00 0 0 0
2083 236 70 -8.4760000000000002e-01 6.7042934934016101e+00 6.7977778749126594e-01 1.2164592213705157e+01 0 0 0
6106 1577 70 -8.4760000000000002e-01 1.5060631994659520e+01 4.5923858873599572e+00 3.9441123459644327e+00 0 0 0
6105 1577 71 4.2380000000000001e-01 1.5566327174358756e+01 4.3729106665927917e+00 4.7776416108421458e+00 0 0 0
3837 821 71 4.2380000000000001e-01 1.4595491475662357e+01 6.2572160314509728e-01 3.3752327411979817e+00 0 1 0
3838 821 70 -8.4760000000000002e-01 1.4283506489066911e+01 7.0928929813546704e-01 2.4295319240506368e+00 0 1 0
10410 3012 71 4.2380000000000001e-01 1.0541419162332170e+01 5.8518049920322763e+00 4.9728946314975717e+00 1 1 1
2468 365 71 4.2380000000000001e-01 1.3736556516883182e+01 6.2920715033878736e+00 2.7277447716110190e+00 0 0 0
5799 1475 71 4.2380000000000001e-01 1.7506281676571035e+01 5.4384654827594803e+00 1.6046456338878827e+00 0 1 1
2470 365 70 -8.4760000000000002e-01 1.2814886101953027e+01 6.6648239697442220e+00 2.6265161221432272e+00 0 0 0
2469 365 71 4.2380000000000001e-01 1.2317411326497439e+01 6.5614613379013935e+00 3.4870414118742419e+00 0 0 0
3919 848 70 -8.4760000000000002e-01 7.3633402760939881e-01 2.8386934122230052e+01 3.5632633248095541e-01 0 0 0
5355 1327 71 4.2380000000000001e-01 8.5547614162596872e+00 2.7896910813451083e+00 3.1576157476267066e+00 0 1 1
5533 1386 70 -8.4760000000000002e-01 2.3981128606567978e+01 3.2090424020242042e-01 1.0490917352580411e+01 0 1 1
5824 1483 70 -8.4760000000000002e-01 1.5336873459242680e+01 3.7999190562974796e+00 6.7468462394151940e+00 0 1 1
10143 2923 71 4.2380000000000001e-01 1.3383639771413437e+01 3.9260883368985424e+00 4.4933647634300087e+00 1 1 1
4038 888 71 4.2380000000000001e-01 1.1078430401196217e+01 2.7810608401239026e+01 1.2322117824633048e+01 0 0 0
3836 821 71 4.2380000000000001e-01 1.3410232053321584e+01 1.1946962555867515e+00 2.4085359174393108e+00 0 1 0
2082 236 71 4.2380000000000001e-01 7.0279736289168078e+00 1.0740277970290004e+00 1.1305251454574217e+01 0 0 0
466 34 67 -6.3100000000000001e-01 2.1182298498925014e+01 5.7079588213654802e+00 3.3708864487882179e-01 0 0 0
2567 398 71 4.2380000000000001e-01 2.7228536729308281e+01 1.1183518816718244e+01 5.5343390985945335e+00 0 0 0
1897 174 70 -8.4760000000000002e-01 2.7843978841019737e+01 1.2630656696677297e+01 5.2339687814232913e-02 0 0 0
3883 836 70 -8.4760000000000002e-01 1.6491953902736437e+01 2.2537531209912349e+00 4.5789965944107652e-01 0 1 0
2399 342 71 4.2380000000000001e-01 3.6282408903275520e+00 2.8965626011408226e+01 1.5354177953502840e-01 0 0 0
8293 2306 70 -8.4760000000000002e-01 1.1855886032222593e+01 2.3607660694682970e+01 8.1717364235329022e+00 0 0 0
7900 2175 70 -8.4760000000000002e-01 1.9258807233797267e+01 7.4722481065212802e+00 1.1801416493939920e+00 0 0 1
476 34 21 4.1699999999999998e-01 2.1867902432315447e+01 6.0951636427671430e+00 5.4028257774628341e-01 0 0 0
3477 701 71 4.2380000000000001e-01 1.9581131685348868e+01 3.9014259291630511e+00 4.4501514165619582e+00 0 0 1
4090 905 70 -8.4760000000000002e-01 1.7310330356107691e+01 1.8170736789238680e+00 3.2438275207000875e+00 0 1 0
4089 905 71 4.2380000000000001e-01 1.6902978603387094e+01 2.2133544678673043e+00 2.4218210916599165e+00 0 1 0
4088 905 71 4.2380000000000001e-01 1.6812628061513820e+01 2.1364780439000954e+00 4.0493964810764975e+00 0 1 0
4326 984 71 4.2380000000000001e-01 2.2103738251657770e+01 2.7210415372428576e-01 1.1364925935024349e+01 0 1 0
3476 701 71 4.2380000000000001e-01 1.9052813779476974e+01 3.1042869359257148e+00 3.1278336859574152e+00 0 0 1
6104 1577 71 4.2380000000000001e-01 1.5665296769684071e+01 5.0614208082386503e+00 3.3014189457737588e+00 0 0 0
468 34 20 3.2000000000000001e-02 2.1085215914373286e+01 4.3475169164526157e+00 1.8636541758742902e+00 0 0 0
3478 701 70 -8.4760000000000002e-01 1.9858478817947525e+01 3.3446182107756597e+00 3.6680310246113161e+00 0 0 1
7889 2172 71 4.2380000000000001e-01 2.8353673971969094e+01 7.8554520986899972e+00 1.3770848358225194e+00 0 0 1
1841 156 71 4.2380000000000001e-01 2.0962401745873283e+01 7.5664607598044196e+00 4.4084106165564405e+00 0 0 0
3713 780 71 4.2380000000000001e-01 2.0679140639958010e+01 9.9372840379370739e+00 4.2376101867277809e+00 0 0 1
5798 1475 71 4.2380000000000001e-01 1.7444666448684064e+01 6.6902499919925109e+00 2.6497838415512942e+00 0 1 1
3714 780 71 4.2380000000000001e-01 2.0809231251641574e+01 9.5213041325714070e+00 2.6649971655951750e+00 0 0 1
3715 780 70 -8.4760000000000002e-01 2.0182148532490938e+01 9.5994249581024995e+00 3.4391628189347356e+00 0 0 1
5800 1475 70 -8.4760000000000002e-01 1.6990416011523862e+01 5.8503906658889768e+00 2.3548913507392353e+00 0 1 1
19 2 20 3.2000000000000001e-02 2.0648310957429896e+01 9.4706155057507690e-01 5.0150019840643374e+00 0 0 0
5562 1396 71 4.2380000000000001e-01 1.8437094594547411e+01 6.9601591816730606e+00 6.4098162026305694e+00 0 1 1
5563 1396 70 -8.4760000000000002e-01 1.8230435471372648e+01 6.5745513865190226e+00 5.5113360092620995e+00 0 1 1
3961 862 70 -8.4760000000000002e-01 1.8056123613580926e+01 4.0245022471361844e+00 5.8258758312190277e+00 0 1 0
3960 862 71 4.2380000000000001e-01 1.8148895015715031e+01 5.0106417664702825e+00 5.6932470736461589e+00 0 1 0
3959 862 71 4.2380000000000001e-01 1.7181714189377658e+01 3.8287185759754445e+00 6.2683065403794362e+00 0 1 0
1843 156 70 -8.4760000000000002e-01 2.1074651146820333e+01 7.6833681148794017e+00 5.3945144852826461e+00 0 0 0
8353 2326 70 -8.4760000000000002e-01 2.6212555651827046e+01 9.8284302075700172e+00 1.2090385853755436e+01 0 1 0
4303 976 70 -8.4760000000000002e-01 2.7764763530837935e+00 3.3172226161198339e+00 4.2205148088332711e+00 0 1 0
28 2 21 4.1699999999999998e-01 1.8419730300052599e+01 8.9679208619746020e-01 3.4246210573956790e+00 0 0 0
7717 2114 70 -8.4760000000000002e-01 2.8732694463291264e+01 4.8554540827443446e+00 1.6631350411737131e+00 0 0 1
3318 648 71 4.2380000000000001e-01 2.6014717761131394e+01 8.6854636415053186e+00 1.8698505396700869e+00 0 0 1
1774 133 70 -8.4760000000000002e-01 2.3318187365199108e+01 4.9170333527226227e+00 6.3121438752889203e+00 0 0 0
1772 133 71 4.2380000000000001e-01 2.2519045481886064e+01 5.4693304393663560e+00 6.5466839247338520e+00 0 0 0
4039 888 70 -8.4760000000000002e-01 1.0603284238274714e+01 2.7161821753812411e+01 1.1728837638099160e+01 0 0 0
3649 758 70 -8.4760000000000002e-01 2.7573641917608839e+01 4.2350912227242485e+00 5.9884276628378581e+00 0 0 1
1773 133 71 4.2380000000000001e-01 2.4013212068262906e+01 5.0180970687180171e+00 7.0230555327718855e+00 0 0 0
5418 1348 71 4.2380000000000001e-01 2.2600819022956902e+01 3.9151894315736566e+00 5.1389868797704183e+00 0 1 1
8798 2475 71 4.2380000000000001e-01 2.2646130891596517e+01 1.7601844636569859e+00 5.5926669202346133e+00 0 1 0
6499 1708 70 -8.4760000000000002e-01 2.2668008258487703e+01 7.8927937233249503e+00 1.1560663606397694e+00 0 0 0
6498 1708 71 4.2380000000000001e-01 2.3636925263712165e+01 7.9979685120028856e+00 1.3769874067689964e+00 0 0 0
6497 1708 71 4.2380000000000001e-01 2.2403272160788340e+01 8.5818103807274984e+00 4.8239070866594747e-01 0 0 0
8800 2475 70 -8.4760000000000002e-01 2.2944856661267877e+01 1.1891001833849215e+00 6.3564035863978861e+00 0 1 0
3317 648 71 4.2380000000000001e-01 2.5254735722056292e+01 9.3011567605549192e+00 5.6354895066909616e-01 0 0 1
5419 1348 70 -8.4760000000000002e-01 2.2385876935813691e+01 3.1583879878831342e+00 4.5227719313338284e+00 0 1 1
3319 648 70 -8.4760000000000002e-01 2.5647065263864782e+01 8.4743220951104927e+00 9.6490913290561053e-01 0 0 1
5417 1348 71 4.2380000000000001e-01 2.1524412019124608e+01 3.3462257356056631e+00 4.0523840335393642e+00 0 1 1
3647 758 71 4.2380000000000001e-01 2.6833967387349119e+01 3.9497875850422322e+00 5.3800264810917149e+00 0 0 1
3302 643 71 4.2380000000000001e-01 1.4003489416328799e+01 2.3622181918986968e+01 3.9419545579983066e+00 0 0 1
2513 380 71 4.2380000000000001e-01 2.6050577263371320e+01 5.4499032462186916e+00 3.7927520858471153e+00 0 0 0
2515 380 70 -8.4760000000000002e-01 2.6394175412772164e+01 6.3355963414760446e+00 4.1028439486306167e+00 0 0 0
3648 758 71 4.2380000000000001e-01 2.8437457597878826e+01 3.8495854960790270e+00 5.6661283794208286e+00 0 0 1
8152 2259 70 -8.4760000000000002e-01 2.8694779711331417e+01 1.7902271519556088e+00 1.4761210988574551e+00 0 1 0
2041 222 70 -8.4760000000000002e-01 2.5141572517565134e+01 3.5769303901362655e+00 4.2553980327933738e+00 0 0 0
6420 1682 71 4.2380000000000001e-01 2.5930869530867646e+01 6.3826724182190553e+00 8.4892721050539866e+00 0 0 0
7928 2185 71 4.2380000000000001e-01 2.4502988535041286e+01 1.1727474727168177e+00 1.5647140364917782e+00 0 0 1
8151 2259 71 4.2380000000000001e-01 2.8549224761685718e+01 1.3511368329839544e+00 5.9029861968114117e-01 0 1 0
8150 2259 71 4.2380000000000001e-01 2.8633228651378044e+01 2.7820427580426972e+00 1.3703794659447115e+00 0 1 0
6421 1682 70 -8.4760000000000002e-01 2.5556977275714729e+01 5.6509158039059884e+00 7.9205851476145099e+00 0 0 0
2040 222 71 4.2380000000000001e-01 2.5380583050451442e+01 2.6083961316012036e+00 4.3144181023049679e+00 0 0 0
7930 2185 70 -8.4760000000000002e-01 2.3660158805926773e+01 1.4031578835398402e+00 1.0797221900264082e+00 0 0 1
2039 222 71 4.2380000000000001e-01 2.4150160369723974e+01 3.6708798951065802e+00 4.1720705471819342e+00 0 0 0
2018 215 71 4.2380000000000001e-01 2.9353060544104697e+01 1.1427957896245971e+01 1.6690192985041914e+00 0 0 0
7896 2174 71 4.2380000000000001e-01 2.7733140407134602e+01 1.5334383531420630e+00 3.0770386056121177e+00 0 0 1
7715 2114 71 4.2380000000000001e-01 2.8957264949694384e+01 5.2558180661155038e+00 2.5507976403660697e+00 0 0 1
7929 2185 71 4.2380000000000001e-01 2.2932932964639509e+01 7.7765795183352826e-01 1.3600085451483763e+00 0 0 1
6813 1813 71 4.2380000000000001e-01 2.9081049942697820e+01 5.8093778897919570e+00 7.7897439157234221e+00 0 0 0
3797 808 71 4.2380000000000001e-01 1.6571056647837199e+01 2.0089860934978399e+00 9.5609692243353948e+00 0 1 0
2081 236 71 4.2380000000000001e-01 7.4821544318225905e+00 5.1819106084554845e-01 1.2770802810931208e+01 0 0 0
4757 1128 71 4.2380000000000001e-01 1.9023841177909087e+01 2.9473160600813014e+01 1.2866347646252072e+01 0 0 0
3798 808 71 4.2380000000000001e-01 1.5950159676432598e+01 6.8075816956139679e-01 8.8444693333598714e+00 0 1 0
4168 931 70 -8.4760000000000002e-01 2.6686280579636325e+01 9.5672663362910870e-01 6.0353943453791805e+00 0 1 0
6270 1632 71 4.2380000000000001e-01 1.6332604879739360e+01 2.9346821481639619e+01 4.8000238420439052e+00 0 0 0
4167 931 71 4.2380000000000001e-01 2.6521850845976029e+01 1.5227576100413169e+00 6.8423890206816722e+00 0 1 0
6419 1682 71 4.2380000000000001e-01 2.6204653989701232e+01 5.4314011430740212e+00 7.1918902884262241e+00 0 0 0
4721 1116 71 4.2380000000000001e-01 9.7313582481630378e-01 2.8493328264370788e+01 1.4116718147462750e+01 0 0 0
4149 925 71 4.2380000000000001e-01 1.6528254068987252e+01 2.6476233463493699e+01 7.8758930469635198e+00 0 0 0