ITEM: TIMESTEP
0
ITEM: NUMBER OF ATOMS
10411
ITEM: BOX BOUNDS pp pp pp
6.6383155390497635e+00 5.3361684460922916e+01
6.6383155390497635e+00 5.3361684460922916e+01
6.6383155390497635e+00 5.3361684460922916e+01
ITEM: ATOMS id mol type mass q xu yu zu 
4351 992 70 15.9994 -0.8476 198.956 -173.267 -318.485 
4350 992 71 1.008 0.4238 199.297 -173.963 -317.854 
4349 992 71 1.008 0.4238 198.046 -173.527 -318.808 
7303 1976 70 15.9994 -0.8476 292.829 -266.595 -173.494 
7302 1976 71 1.008 0.4238 293.605 -266.695 -174.116 
5806 1477 70 15.9994 -0.8476 248.427 -178.621 -272.243 
5804 1477 71 1.008 0.4238 247.539 -178.177 -272.366 
7301 1976 71 1.008 0.4238 293.142 -266.198 -172.631 
8479 2368 70 15.9994 -0.8476 295.462 -170.665 -266.42 
8380 2335 70 15.9994 -0.8476 380.82 -172.819 -271.465 
10223 2950 71 1.008 0.4238 246.756 -221.582 -269.365 
6131 1586 71 1.008 0.4238 339.605 -171.222 -311.581 
9142 2589 70 15.9994 -0.8476 340.707 -130.406 -125.252 
8626 2417 70 15.9994 -0.8476 341.718 -267.302 -221.973 
8624 2417 71 1.008 0.4238 341.948 -268.092 -221.405 
6133 1586 70 15.9994 -0.8476 340.369 -171.864 -311.522 
8477 2368 71 1.008 0.4238 295.144 -170.303 -267.297 
1979 202 71 1.008 0.4238 340.191 -266.097 -309.832 
1981 202 70 15.9994 -0.8476 339.79 -266.38 -308.961 
1980 202 71 1.008 0.4238 339.439 -267.313 -309.042 
6132 1586 71 1.008 0.4238 341.21 -171.41 -311.817 
190 14 20 1.008 0.031 383.293 -177.468 -310.631 
184 14 12 12.011 0.166 383.244 -177.407 -309.537 
189 14 67 15.9994 -0.611 382.017 -177.885 -308.894 
593 43 20 1.008 0.032 339.169 -217.144 -222.151 
594 43 20 1.008 0.032 339.689 -217.425 -223.804 
7657 2094 70 15.9994 -0.8476 338.596 -362.177 -265.48 
7655 2094 71 1.008 0.4238 338.995 -361.43 -266.012 
9141 2589 71 1.008 0.4238 340.958 -130.632 -124.31 
2153 260 71 1.008 0.4238 290.477 -216.658 -264.849 
4715 1114 71 1.008 0.4238 241.887 -266.055 -264.364 
2154 260 71 1.008 0.4238 290.719 -217.182 -263.321 
2155 260 70 15.9994 -0.8476 291.116 -217.125 -264.237 
7656 2094 71 1.008 0.4238 339.16 -362.997 -265.582 
595 43 67 15.9994 -0.611 341.874 -216.816 -222.204 
194 14 58 1.008 0.417 384.844 -175.351 -310.52 
191 14 67 15.9994 -0.631 384.819 -175.474 -309.543 
9901 2842 70 15.9994 -0.8476 338.108 -83.7463 -175.291 
9899 2842 71 1.008 0.4238 338.688 -83.8828 -174.487 
601 43 21 1.008 0.398 342.166 -217.439 -222.946 
185 14 64 12.011 0.158 383.491 -175.926 -309.201 
9900 2842 71 1.008 0.4238 337.79 -84.6328 -175.627 
589 43 64 12.011 0.158 339.502 -216.687 -223.035 
193 14 20 1.008 0.032 382.723 -175.261 -309.663 
7544 2057 71 1.008 0.4238 389.155 -169.652 -311.624 
7546 2057 70 15.9994 -0.8476 389.392 -169.228 -310.75 
2572 399 70 15.9994 -0.8476 244.322 -272.816 -317.171 
6345 1657 71 1.008 0.4238 199.849 -226.044 -269.899 
2571 399 71 1.008 0.4238 243.34 -272.969 -317.067 
4717 1114 70 15.9994 -0.8476 241.134 -265.802 -263.756 
4716 1114 71 1.008 0.4238 241.266 -264.865 -263.433 
4884 1170 71 1.008 0.4238 201.333 -217.73 -179.007 
6296 1641 71 1.008 0.4238 288.7 -315.934 -225.534 
9939 2855 71 1.008 0.4238 429.958 -218.012 -409.145 
4883 1170 71 1.008 0.4238 199.899 -218.512 -178.997 
8625 2417 71 1.008 0.4238 342.559 -266.861 -222.287 
2455 360 70 15.9994 -0.8476 241.721 -122.745 -216.88 
4311 979 71 1.008 0.4238 243.154 -79.5208 -219.892 
4310 979 71 1.008 0.4238 243.493 -80.8613 -219.023 
4312 979 70 15.9994 -0.8476 242.903 -80.0563 -219.085 
4885 1170 70 15.9994 -0.8476 200.442 -217.809 -179.455 
2570 399 71 1.008 0.4238 244.767 -273.67 -317.44 
6298 1641 70 15.9994 -0.8476 289.199 -315.135 -225.2 
9187 2604 70 15.9994 -0.8476 295.581 -223.256 -267.372 
9185 2604 71 1.008 0.4238 294.896 -223.441 -266.667 
9186 2604 71 1.008 0.4238 295.929 -224.12 -267.734 
2454 360 71 1.008 0.4238 242.028 -122.154 -217.625 
3722 783 71 1.008 0.4238 243.609 -269.261 -222.427 
3724 783 70 15.9994 -0.8476 243.237 -268.372 -222.692 
3723 783 71 1.008 0.4238 242.833 -268.438 -223.605 
10226 2951 71 1.008 0.4238 381.202 -131.547 -83.5975 
6297 1641 71 1.008 0.4238 289.402 -314.525 -225.967 
10225 2950 70 15.9994 -0.8476 246.273 -222.09 -270.078 
10224 2950 71 1.008 0.4238 245.513 -222.596 -269.669 
5805 1477 71 1.008 0.4238 249.027 -178.024 -271.71 
2369 332 71 1.008 0.4238 334.444 -177.546 -272.797 
188 14 20 1.008 0.032 385.329 -177.957 -309.539 
6555 1727 71 1.008 0.4238 383.861 -126.691 -268.78 
6556 1727 70 15.9994 -0.8476 384.142 -125.764 -268.531 
6554 1727 71 1.008 0.4238 385.078 -125.783 -268.181 
7545 2057 71 1.008 0.4238 388.557 -169.048 -310.23 
9853 2826 70 15.9994 -0.8476 336.57 -86.1552 -266.083 
9763 2796 70 15.9994 -0.8476 246.024 -223.854 -225.338 
2329 318 70 15.9994 -0.8476 202.15 -127.853 -311.423 
2327 318 71 1.008 0.4238 201.798 -127.01 -311.017 
183 14 64 12.011 0.158 384.412 -178.354 -309.033 
2371 332 70 15.9994 -0.8476 334.633 -176.788 -273.421 
9761 2796 71 1.008 0.4238 246.141 -223.318 -224.502 
4143 923 71 1.008 0.4238 154.893 -318.177 -122.078 
4144 923 70 15.9994 -0.8476 154.48 -317.285 -122.264 
9335 2654 71 1.008 0.4238 245.998 -169.312 -85.8939 
8899 2508 70 15.9994 -0.8476 338.908 -178.64 -219.812 
4070 899 71 1.008 0.4238 473.981 -84.8459 -313.803 
195 14 21 1.008 0.398 381.739 -178.491 -309.594 
8379 2335 71 1.008 0.4238 381.326 -173.675 -271.565 
4071 899 71 1.008 0.4238 474.463 -83.4413 -313.124 
9140 2589 71 1.008 0.4238 340.096 -131.112 -125.611 
9940 2855 70 15.9994 -0.8476 429.576 -217.214 -409.61 
602 43 21 1.008 0.417 337.652 -216.262 -223.344 
9938 2855 71 1.008 0.4238 428.702 -216.969 -409.19 
9851 2826 71 1.008 0.4238 335.968 -85.3853 -265.873 
590 43 12 12.011 0.166 340.82 -215.975 -222.747 
599 43 20 1.008 0.032 341.741 -215.843 -224.747 
4261 962 70 15.9994 -0.8476 193.694 -262.971 -361.367 
9864 2830 71 1.008 0.4238 429.841 -264.679 -224.639 
9865 2830 70 15.9994 -0.8476 430.164 -264.486 -225.566 
8898 2508 71 1.008 0.4238 337.945 -178.759 -219.57 
4072 899 70 15.9994 -0.8476 474.384 -84.4289 -312.988 
5010 1212 71 1.008 0.4238 296.095 -179.89 -171.778 
6344 1657 71 1.008 0.4238 201.365 -226.061 -269.292 
9863 2830 71 1.008 0.4238 430.192 -265.335 -226.093 
2328 318 71 1.008 0.4238 201.48 -128.586 -311.303 
10227 2951 71 1.008 0.4238 381.11 -132.756 -84.6913 
10222 2949 70 15.9994 -0.8476 202.832 -129.304 -133.441 
9360 2662 71 1.008 0.4238 295.886 -180.105 -272.261 
8378 2335 71 1.008 0.4238 380.521 -172.718 -270.516 
2453 360 71 1.008 0.4238 241.056 -122.255 -216.317 
10023 2883 71 1.008 0.4238 381.348 -221.21 -219.159 
979 70 21 1.008 0.398 287.324 -172.21 -226.345 
10024 2883 70 15.9994 -0.8476 380.613 -221.842 -219.402 
5881 1502 70 15.9994 -0.8476 382.985 -168.69 -273.334 
592 43 67 15.9994 -0.631 338.48 -215.716 -223.293 
1786 137 70 15.9994 -0.8476 339.961 -215.555 -263.434 
1784 137 71 1.008 0.4238 339.134 -216.02 -263.748 
1831 152 70 15.9994 -0.8476 147.501 -122.005 -271.094 
1830 152 71 1.008 0.4238 148.322 -122.54 -270.893 
5880 1502 71 1.008 0.4238 383.334 -169.62 -273.223 
4259 962 71 1.008 0.4238 193.71 -262.089 -360.896 
9762 2796 71 1.008 0.4238 245.136 -224.314 -225.318 
6346 1657 70 15.9994 -0.8476 200.518 -226.584 -269.388 
9595 2740 70 15.9994 -0.8476 335.06 -180.19 -216.758 
5313 1313 71 1.008 0.4238 249.419 -226.196 -262.983 
10228 2951 70 15.9994 -0.8476 381.466 -132.491 -83.7951 
8897 2508 71 1.008 0.4238 339.353 -179.535 -219.858 
186 14 67 15.9994 -0.631 384.224 -179.795 -309.345 
196 14 21 1.008 0.417 383.244 -179.978 -309.436 
9933 2853 71 1.008 0.4238 246.387 -176.733 -273.685 
9852 2826 71 1.008 0.4238 336.342 -86.5213 -266.985 
7667 2098 71 1.008 0.4238 296.94 -218.479 -317.443 
7669 2098 70 15.9994 -0.8476 296.554 -217.763 -318.024 
8478 2368 71 1.008 0.4238 296.42 -170.939 -266.501 
3272 633 71 1.008 0.4238 344.677 -265.775 -222.26 
3274 633 70 15.9994 -0.8476 344.174 -266.366 -222.891 
5312 1313 71 1.008 0.4238 250.555 -225.056 -262.706 
7668 2098 71 1.008 0.4238 297.275 -217.376 -318.6 
10029 2885 71 1.008 0.4238 389.998 -169.997 -215.529 
10304 2977 71 1.008 0.4238 250.127 -319.866 -222.153 
5011 1212 70 15.9994 -0.8476 296.69 -179.187 -172.167 
6053 1560 71 1.008 0.4238 251.019 -314.74 -218.858 
6054 1560 71 1.008 0.4238 250.484 -315.658 -220.098 
6055 1560 70 15.9994 -0.8476 251.253 -315.119 -219.753 
10265 2964 71 1.008 0.4238 439.723 -176.124 -170.495 
10266 2964 71 1.008 0.4238 441.29 -175.983 -170.931 
10306 2977 70 15.9994 -0.8476 249.779 -318.931 -222.228 
2047 224 70 15.9994 -0.8476 250.749 -219.401 -123.317 
4272 966 71 1.008 0.4238 251.963 -171.307 -313.149 
4271 966 71 1.008 0.4238 251.762 -170.848 -314.704 
4273 966 70 15.9994 -0.8476 251.29 -171.111 -313.862 
10267 2964 70 15.9994 -0.8476 440.543 -175.557 -170.42 
2046 224 71 1.008 0.4238 251.424 -219.719 -122.651 
8320 2315 70 15.9994 -0.8476 345.72 -170.616 -225.553 
8318 2315 71 1.008 0.4238 346.457 -169.946 -225.455 
3273 633 71 1.008 0.4238 344.515 -267.303 -222.813 
2948 525 71 1.008 0.4238 299.503 -219.224 -224.668 
8319 2315 71 1.008 0.4238 345.737 -170.997 -226.478 
2949 525 71 1.008 0.4238 300.83 -220.02 -225.19 
2950 525 70 15.9994 -0.8476 300.165 -219.941 -224.448 
5009 1212 71 1.008 0.4238 297.341 -179.612 -172.796 
6280 1635 70 15.9994 -0.8476 258.746 -175.86 -269.451 
6279 1635 71 1.008 0.4238 258.369 -176.786 -269.455 
707 51 67 15.9994 -0.611 256.924 -271.839 -225.006 
713 51 21 1.008 0.398 257.738 -271.626 -225.573 
702 51 12 12.011 0.166 256.31 -272.921 -225.719 
708 51 20 1.008 0.031 256.58 -272.87 -226.786 
3411 679 71 1.008 0.4238 257.857 -175.04 -174.798 
3410 679 71 1.008 0.4238 256.503 -174.137 -174.659 
3412 679 70 15.9994 -0.8476 257.247 -174.577 -174.155 
1509 108 20 1.008 0.032 258.023 -219.141 -175.961 
1501 108 64 12.011 0.158 258.104 -219.174 -177.049 
1508 108 20 1.008 0.032 257.388 -218.481 -177.411 
1510 108 58 1.008 0.417 258.218 -221.216 -177.067 
1507 108 67 15.9994 -0.631 257.774 -220.456 -177.57 
2681 436 71 1.008 0.4238 350.109 -177.421 -267.57 
7333 1986 70 15.9994 -0.8476 351.986 -220.581 -310.041 
2682 436 71 1.008 0.4238 350.005 -177.226 -265.952 
2683 436 70 15.9994 -0.8476 349.975 -177.891 -266.697 
7421 2016 71 1.008 0.4238 303.284 -226.293 -80.4532 
1861 162 70 15.9994 -0.8476 255.716 -360.496 -272.727 
2467 364 70 15.9994 -0.8476 254.711 -219.946 -315.378 
2465 364 71 1.008 0.4238 254.512 -219.112 -314.864 
6465 1697 71 1.008 0.4238 161.13 -127.65 -216.323 
2466 364 71 1.008 0.4238 254.315 -219.877 -316.293 
6698 1775 71 1.008 0.4238 392.416 -175.671 -221.766 
705 51 20 1.008 0.032 254.443 -272.041 -226.081 
6699 1775 71 1.008 0.4238 392.695 -174.97 -223.214 
6700 1775 70 15.9994 -0.8476 392.03 -175.48 -222.668 
7331 1986 71 1.008 0.4238 351.47 -220.184 -309.283 
1860 162 71 1.008 0.4238 256.377 -360.709 -272.007 
2436 354 71 1.008 0.4238 300.857 -127.996 -361.469 
8196 2274 71 1.008 0.4238 254.613 -131.629 -266.095 
8197 2274 70 15.9994 -0.8476 254.072 -131.757 -265.265 
7724 2117 71 1.008 0.4238 391.589 -216.358 -269.678 
1859 162 71 1.008 0.4238 256.015 -360.91 -273.587 
7726 2117 70 15.9994 -0.8476 392.496 -216.746 -269.516 
3428 685 71 1.008 0.4238 251.127 -224.879 -124.669 
3429 685 71 1.008 0.4238 252.733 -224.587 -124.655 
3430 685 70 15.9994 -0.8476 251.867 -224.406 -124.191 
2437 354 70 15.9994 -0.8476 300.55 -128.644 -360.772 
2435 354 71 1.008 0.4238 299.887 -128.197 -360.171 
7725 2117 71 1.008 0.4238 393.148 -216.35 -270.162 
5995 1540 70 15.9994 -0.8476 394.86 -217.822 -360.427 
7912 2179 70 15.9994 -0.8476 257.055 -128.782 -218.284 
2045 224 71 1.008 0.4238 250.178 -220.168 -123.606 
3209 612 71 1.008 0.4238 257.877 -172.653 -220.185 
3211 612 70 15.9994 -0.8476 257.514 -171.721 -220.198 
10060 2895 70 15.9994 -0.8476 297.528 -224 -224.371 
10059 2895 71 1.008 0.4238 297.66 -223.308 -223.661 
5993 1540 71 1.008 0.4238 395.319 -217.001 -360.768 
10305 2977 71 1.008 0.4238 250.302 -318.436 -222.922 
3420 682 71 1.008 0.4238 345.799 -171.527 -357.55 
3421 682 70 15.9994 -0.8476 346.36 -170.887 -358.075 
10058 2895 71 1.008 0.4238 298.418 -224.338 -224.676 
2201 276 71 1.008 0.4238 164.037 -85.1304 -363.465 
2203 276 70 15.9994 -0.8476 164.638 -85.0518 -362.67 
3900 842 71 1.008 0.4238 209.054 -265.453 -366.854 
3419 682 71 1.008 0.4238 346.075 -169.95 -357.871 
5994 1540 71 1.008 0.4238 394.474 -217.637 -359.523 
9715 2780 70 15.9994 -0.8476 114.061 -122.316 -131.105 
9713 2780 71 1.008 0.4238 114.968 -122.53 -131.468 
5604 1410 71 1.008 0.4238 301.496 -170.458 -310.613 
3210 612 71 1.008 0.4238 256.516 -171.751 -220.153 
9904 2843 70 15.9994 -0.8476 256.626 -309.424 -319.402 
7911 2179 71 1.008 0.4238 257.081 -128.538 -219.254 
7910 2179 71 1.008 0.4238 257.474 -128.051 -217.745 
2202 276 71 1.008 0.4238 164.464 -85.8132 -362.045 
4560 1062 71 1.008 0.4238 304.471 -28.7529 -173.435 
8961 2529 71 1.008 0.4238 349.802 -215.332 -268.82 
9903 2843 71 1.008 0.4238 257.457 -309.57 -318.866 
8962 2529 70 15.9994 -0.8476 349.224 -215.522 -268.026 
701 51 64 12.011 0.158 254.806 -272.888 -225.492 
3450 692 71 1.008 0.4238 304.182 -176.308 -168.69 
3449 692 71 1.008 0.4238 302.985 -175.199 -168.648 
7332 1986 71 1.008 0.4238 352.312 -219.851 -310.641 
7989 2205 71 1.008 0.4238 258.897 -265.326 -125.766 
2632 419 70 15.9994 -0.8476 211.625 -178.22 -122.276 
2631 419 71 1.008 0.4238 211.767 -178.772 -123.098 
8734 2453 70 15.9994 -0.8476 115.013 -86.6673 -263.446 
8732 2453 71 1.008 0.4238 114.963 -86.287 -262.522 
8195 2274 71 1.008 0.4238 254.612 -132.259 -264.589 
7401 2009 71 1.008 0.4238 298.837 -168.717 -221.344 
5605 1410 70 15.9994 -0.8476 302.276 -170.253 -310.022 
9383 2670 71 1.008 0.4238 252.699 -226.606 -78.2403 
4214 947 71 1.008 0.4238 396.252 -130.052 -272.863 
5314 1313 70 15.9994 -0.8476 249.844 -225.62 -262.285 
5603 1410 71 1.008 0.4238 302.859 -171.062 -309.946 
6466 1697 70 15.9994 -0.8476 161.413 -127.044 -215.579 
10221 2949 71 1.008 0.4238 203.44 -129.344 -132.648 
706 51 20 1.008 0.032 254.664 -272.675 -224.446 
1505 108 67 15.9994 -0.611 260.567 -219.591 -177.099 
1500 108 12 12.011 0.166 259.513 -218.775 -177.618 
1506 108 20 1.008 0.031 259.448 -218.964 -178.725 
1511 108 21 1.008 0.398 260.542 -219.591 -176.08 
1512 108 21 1.008 0.417 259.641 -216.591 -179.16 
6278 1635 71 1.008 0.4238 259.669 -175.877 -269.066 
1502 108 67 15.9994 -0.631 259.232 -216.353 -178.264 
6663 1763 71 1.008 0.4238 260.852 -220.163 -272.216 
9227 2618 71 1.008 0.4238 399.926 -272.699 -179.869 
1499 108 64 12.011 0.158 259.855 -217.311 -177.325 
1503 108 20 1.008 0.032 260.941 -217.331 -177.323 
4653 1093 71 1.008 0.4238 260.055 -272.707 -271.497 
1504 108 20 1.008 0.032 259.515 -217.067 -176.35 
6970 1865 70 15.9994 -0.8476 120.208 -126.244 -267.977 
6969 1865 71 1.008 0.4238 120.111 -125.982 -267.017 
6968 1865 71 1.008 0.4238 120.416 -127.22 -268.037 
7990 2205 70 15.9994 -0.8476 259.63 -265.423 -125.093 
7988 2205 71 1.008 0.4238 260.02 -264.524 -124.892 
7466 2031 71 1.008 0.4238 358.865 -314.088 -225.712 
7468 2031 70 15.9994 -0.8476 358.609 -313.132 -225.572 
7997 2208 71 1.008 0.4238 310.717 -177.392 -318.039 
10184 2937 71 1.008 0.4238 217.211 -220.91 -269.152 
10186 2937 70 15.9994 -0.8476 216.912 -220.312 -269.896 
7999 2208 70 15.9994 -0.8476 310.081 -176.629 -318.152 
7998 2208 71 1.008 0.4238 310.541 -175.773 -317.915 
10185 2937 71 1.008 0.4238 215.919 -220.375 -269.995 
6664 1763 70 15.9994 -0.8476 261.157 -220.522 -273.098 
433 31 21 1.008 0.398 215.895 -179.47 -268.492 
427 31 67 15.9994 -0.611 215.789 -179.117 -267.588 
428 31 20 1.008 0.031 215.775 -177.241 -266.5 
422 31 12 12.011 0.166 215.823 -177.667 -267.58 
425 31 20 1.008 0.032 213.684 -177.867 -268.406 
424 31 67 15.9994 -0.631 214.123 -175.854 -267.963 
426 31 20 1.008 0.032 214.92 -177.053 -269.373 
421 31 64 12.011 0.158 214.563 -177.169 -268.349 
5326 1317 70 15.9994 -0.8476 407.975 -223.784 -271.379 
431 31 20 1.008 0.032 218.041 -177.491 -267.771 
434 31 21 1.008 0.417 213.865 -175.895 -266.987 
423 31 64 12.011 0.158 217.158 -177.134 -268.206 
430 31 20 1.008 0.032 217.153 -177.412 -269.247 
429 31 67 15.9994 -0.631 217.244 -175.719 -268.145 
5325 1317 71 1.008 0.4238 407.793 -224.076 -272.317 
2162 263 71 1.008 0.4238 173.474 -269.183 -313.912 
2164 263 70 15.9994 -0.8476 174.018 -268.751 -314.631 
432 31 58 1.008 0.417 217.67 -175.57 -267.188 
5787 1471 71 1.008 0.4238 314.264 -218.02 -271.372 
7467 2031 71 1.008 0.4238 358.241 -313.017 -224.649 
579 42 20 1.008 0.032 264.258 -172.212 -313.039 
587 42 21 1.008 0.398 263.244 -170.61 -314.157 
581 42 67 15.9994 -0.611 262.756 -170.167 -313.382 
582 42 20 1.008 0.031 264.515 -169.986 -312.349 
576 42 12 12.011 0.166 263.5 -170.385 -312.21 
575 42 64 12.011 0.158 263.663 -171.9 -312.152 
580 42 20 1.008 0.032 262.7 -172.381 -312.271 
578 42 67 15.9994 -0.631 264.384 -172.295 -310.938 
577 42 64 12.011 0.158 262.865 -169.858 -310.947 
588 42 21 1.008 0.417 264.006 -173.123 -310.514 
6136 1587 70 15.9994 -0.8476 356.367 -86.5012 -270.173 
7076 1901 71 1.008 0.4238 401.981 -270.375 -365.494 
583 42 67 15.9994 -0.631 261.483 -170.267 -310.693 
3324 650 71 1.008 0.4238 169.021 -179.844 -312.83 
7851 2159 71 1.008 0.4238 361.481 -179.859 -176.55 
7852 2159 70 15.9994 -0.8476 361.145 -179.17 -175.909 
4134 920 71 1.008 0.4238 312.426 -223.265 -218.942 
4133 920 71 1.008 0.4238 312.522 -221.644 -218.773 
7964 2197 71 1.008 0.4238 314.144 -175.554 -177.453 
4654 1093 70 15.9994 -0.8476 260.235 -272.977 -270.551 
8831 2486 71 1.008 0.4238 406.186 -218.33 -263.842 
8833 2486 70 15.9994 -0.8476 407.184 -218.301 -263.789 
2630 419 71 1.008 0.4238 212.417 -177.627 -122.133 
4135 920 70 15.9994 -0.8476 312.028 -222.39 -219.218 
8276 2301 71 1.008 0.4238 357.853 -170.554 -269.163 
8277 2301 71 1.008 0.4238 356.987 -171.931 -269.307 
8278 2301 70 15.9994 -0.8476 357.013 -171.023 -268.889 
8846 2491 71 1.008 0.4238 306.52 -128.517 -217.971 
4652 1093 71 1.008 0.4238 259.51 -272.624 -269.96 
2555 394 71 1.008 0.4238 220.988 -217.063 -220.958 
3866 831 71 1.008 0.4238 266.988 -219.858 -311.171 
6134 1587 71 1.008 0.4238 356.902 -86.402 -271.012 
4769 1132 71 1.008 0.4238 215.483 -309.826 -273.247 
4771 1132 70 15.9994 -0.8476 216.194 -309.765 -272.547 
8832 2486 71 1.008 0.4238 407.484 -217.355 -263.665 
7231 1952 70 15.9994 -0.8476 219.653 -318.148 -218.54 
7229 1952 71 1.008 0.4238 219.329 -319.084 -218.676 
7230 1952 71 1.008 0.4238 220.465 -318.157 -217.956 
3111 579 71 1.008 0.4238 401.679 -262.061 -219.949 
585 42 20 1.008 0.032 263.455 -169.968 -310.036 
9229 2618 70 15.9994 -0.8476 399.512 -271.961 -179.337 
8847 2491 71 1.008 0.4238 307.118 -130.007 -218.268 
8848 2491 70 15.9994 -0.8476 306.99 -129.089 -218.643 
7623 2083 71 1.008 0.4238 354.827 -218.647 -169.657 
5786 1471 71 1.008 0.4238 314.443 -219.612 -271.055 
7850 2159 71 1.008 0.4238 361.588 -179.295 -175.021 
5788 1471 70 15.9994 -0.8476 314.797 -218.697 -270.864 
7966 2197 70 15.9994 -0.8476 313.742 -174.764 -176.99 
6135 1587 71 1.008 0.4238 355.413 -86.2669 -270.357 
2557 394 70 15.9994 -0.8476 221.452 -216.232 -220.651 
4770 1132 71 1.008 0.4238 216.699 -310.627 -272.509 
7965 2197 71 1.008 0.4238 313.838 -174.874 -176 
5324 1317 71 1.008 0.4238 407.683 -224.499 -270.744 
4416 1014 71 1.008 0.4238 408.029 -126.701 -221.466 
9228 2618 71 1.008 0.4238 400.138 -271.182 -179.303 
6521 1716 71 1.008 0.4238 406.302 -216.512 -410.783 
7622 2083 71 1.008 0.4238 355.506 -220.129 -169.552 
7624 2083 70 15.9994 -0.8476 354.803 -219.524 -169.177 
2674 433 70 15.9994 -0.8476 358.103 -225.912 -178.968 
6523 1716 70 15.9994 -0.8476 405.791 -216.136 -410.009 
3354 660 71 1.008 0.4238 360.997 -122.441 -225.512 
2672 433 71 1.008 0.4238 359.077 -225.892 -179.195 
586 42 58 1.008 0.417 260.876 -169.421 -310.738 
584 42 20 1.008 0.032 262.957 -168.799 -310.994 
3353 660 71 1.008 0.4238 359.672 -123.186 -226.109 
3577 734 70 15.9994 -0.8476 356.801 -268.138 -216.375 
3575 734 71 1.008 0.4238 356.594 -269.047 -216.737 
3576 734 71 1.008 0.4238 357.559 -268.203 -215.725 
5966 1531 71 1.008 0.4238 353.064 -226.052 -171.636 
5968 1531 70 15.9994 -0.8476 353.76 -225.398 -171.341 
3355 660 70 15.9994 -0.8476 360.377 -123.218 -225.4 
5736 1454 71 1.008 0.4238 310.613 -125.755 -179.536 
7077 1901 71 1.008 0.4238 401.284 -269.027 -366.096 
3868 831 70 15.9994 -0.8476 267.296 -220.783 -311.395 
5408 1345 71 1.008 0.4238 407.757 -268.737 -216.855 
3867 831 71 1.008 0.4238 268.27 -220.763 -311.622 
3836 821 71 1.008 0.4238 264.041 -176.329 -273.258 
5410 1345 70 15.9994 -0.8476 407.685 -269.606 -216.366 
5737 1454 70 15.9994 -0.8476 309.963 -125.31 -180.152 
6081 1569 71 1.008 0.4238 361.045 -179.867 -320.039 
2673 433 71 1.008 0.4238 357.566 -225.716 -179.788 
2187 271 71 1.008 0.4238 309.67 -122.577 -222.834 
2188 271 70 15.9994 -0.8476 309.221 -121.854 -223.359 
2186 271 71 1.008 0.4238 309.117 -122.147 -224.31 
6935 1854 71 1.008 0.4238 312.338 -273.7 -315.422 
8391 2339 71 1.008 0.4238 313.033 -168.992 -449.038 
6310 1645 70 15.9994 -0.8476 268.112 -262.562 -263.462 
7078 1901 70 15.9994 -0.8476 401.188 -270.016 -365.986 
3107 578 71 1.008 0.4238 354.557 -175.946 -262.525 
5967 1531 71 1.008 0.4238 354.517 -225.889 -170.91 
6082 1569 70 15.9994 -0.8476 360.564 -178.992 -319.981 
4547 1058 71 1.008 0.4238 217.692 -224.389 -216.372 
4548 1058 71 1.008 0.4238 217.347 -224.117 -217.944 
4549 1058 70 15.9994 -0.8476 216.961 -224.195 -217.025 
7359 1995 71 1.008 0.4238 312.623 -36.5644 -168.741 
4610 1079 71 1.008 0.4238 225.051 -179.713 -271.533 
3198 608 71 1.008 0.4238 417.15 -169.608 -133.457 
5138 1255 71 1.008 0.4238 319.18 -175.674 -226.111 
4415 1014 71 1.008 0.4238 408.523 -125.399 -222.318 
4417 1014 70 15.9994 -0.8476 408.538 -125.842 -221.422 
4611 1079 71 1.008 0.4238 224.812 -178.657 -270.311 
2163 263 71 1.008 0.4238 174.903 -269.212 -314.703 
4491 1039 71 1.008 0.4238 130.22 -82.9618 -226.96 
7835 2154 71 1.008 0.4238 269.018 -179.003 -170.67 
2556 394 71 1.008 0.4238 222.432 -216.312 -220.831 
7239 1955 71 1.008 0.4238 274.153 -175.651 -271.598 
2300 309 71 1.008 0.4238 367.251 -170.272 -317.6 
5351 1326 71 1.008 0.4238 269.468 -170.991 -317.763 
7395 2007 71 1.008 0.4238 363.971 -269.348 -269.132 
2302 309 70 15.9994 -0.8476 367.592 -169.387 -317.281 
5353 1326 70 15.9994 -0.8476 270.374 -170.593 -317.618 
5352 1326 71 1.008 0.4238 271.075 -171.272 -317.833 
5140 1255 70 15.9994 -0.8476 320.113 -175.346 -226.255 
6839 1822 71 1.008 0.4238 271.288 -129.206 -224.61 
6841 1822 70 15.9994 -0.8476 271.243 -129.779 -225.428 
5078 1235 71 1.008 0.4238 272.263 -125.766 -319.389 
5079 1235 71 1.008 0.4238 273.368 -125.344 -318.264 
6840 1822 71 1.008 0.4238 271.28 -130.742 -225.163 
4784 1137 71 1.008 0.4238 316.716 -177.602 -314.134 
4786 1137 70 15.9994 -0.8476 316.588 -177.821 -313.166 
4785 1137 71 1.008 0.4238 316.865 -177.039 -312.608 
9868 2831 70 15.9994 -0.8476 320.023 -174.887 -263.145 
9866 2831 71 1.008 0.4238 320.884 -175.056 -262.666 
4612 1079 70 15.9994 -0.8476 224.38 -179.125 -271.082 
9277 2634 70 15.9994 -0.8476 273.234 -225.097 -266.104 
9807 2811 71 1.008 0.4238 319.354 -268.072 -316.04 
9276 2634 71 1.008 0.4238 272.516 -225.792 -266.075 
9275 2634 71 1.008 0.4238 273.98 -225.412 -266.69 
9808 2811 70 15.9994 -0.8476 318.713 -268.099 -316.807 
9806 2811 71 1.008 0.4238 318.948 -267.381 -317.463 
5389 1338 70 15.9994 -0.8476 276.456 -77.7706 -320.028 
5538 1388 71 1.008 0.4238 230.209 -174.312 -269.786 
5485 1370 70 15.9994 -0.8476 364.03 -219.883 -265.301 
5539 1388 70 15.9994 -0.8476 229.747 -173.516 -269.396 
5537 1388 71 1.008 0.4238 230.24 -173.211 -268.581 
5484 1370 71 1.008 0.4238 364.264 -219.312 -264.514 
5080 1235 70 15.9994 -0.8476 272.397 -125.514 -318.431 
487 35 20 1.008 0.032 275.664 -178.284 -273.431 
4764 1130 71 1.008 0.4238 226.702 -130.358 -270.097 
4765 1130 70 15.9994 -0.8476 226.255 -131.079 -269.567 
4763 1130 71 1.008 0.4238 226.947 -131.614 -269.082 
5594 1407 71 1.008 0.4238 275.544 -172.676 -130.337 
5596 1407 70 15.9994 -0.8476 275.054 -172.136 -131.022 
5595 1407 71 1.008 0.4238 275.695 -171.83 -131.726 
5483 1370 71 1.008 0.4238 364.322 -220.824 -265.13 
6608 1745 71 1.008 0.4238 321.961 -221.065 -315.132 
2913 513 71 1.008 0.4238 226.989 -176.822 -266.075 
6787 1804 70 15.9994 -0.8476 370.934 -219.434 -266.857 
6785 1804 71 1.008 0.4238 370.878 -218.751 -266.129 
7761 2129 71 1.008 0.4238 276.941 -131.865 -77.3283 
7396 2007 70 15.9994 -0.8476 363.26 -269.987 -268.837 
8549 2392 71 1.008 0.4238 363.6 -264.89 -314.817 
7394 2007 71 1.008 0.4238 362.642 -270.174 -269.601 
2912 513 71 1.008 0.4238 227.097 -175.308 -266.676 
2914 513 70 15.9994 -0.8476 227.289 -175.887 -265.884 
1895 174 71 1.008 0.4238 229.63 -365.111 -360.075 
6610 1745 70 15.9994 -0.8476 321.096 -221.565 -315.1 
7986 2204 71 1.008 0.4238 370.201 -262.334 -127.756 
8551 2392 70 15.9994 -0.8476 364.102 -264.032 -314.928 
8550 2392 71 1.008 0.4238 364.094 -263.763 -315.891 
4276 967 70 15.9994 -0.8476 270.513 -129.169 -217.122 
2832 486 71 1.008 0.4238 225.459 -264.127 -360.625 
4275 967 71 1.008 0.4238 270.107 -130.061 -216.92 
2833 486 70 15.9994 -0.8476 226.145 -264.365 -359.937 
2831 486 71 1.008 0.4238 226.058 -265.333 -359.701 
7762 2129 70 15.9994 -0.8476 276.83 -131.781 -76.338 
9867 2831 71 1.008 0.4238 320.088 -175.236 -264.08 
4046 891 71 1.008 0.4238 365.885 -219.916 -263.087 
10393 3006 70 15.9994 -0.8476 183.364 -170.086 -217.514 
4048 891 70 15.9994 -0.8476 365.465 -219.009 -263.072 
4047 891 71 1.008 0.4238 366.137 -218.325 -263.354 
6609 1745 71 1.008 0.4238 321.023 -222.156 -315.904 
6541 1722 70 15.9994 -0.8476 229.773 -81.9519 -171.366 
6540 1722 71 1.008 0.4238 229.557 -82.3776 -170.487 
6539 1722 71 1.008 0.4238 228.969 -81.9874 -171.96 
3863 830 71 1.008 0.4238 315.772 -179.374 -219.238 
4274 967 71 1.008 0.4238 271.208 -128.957 -216.435 
7238 1955 71 1.008 0.4238 275.587 -175.93 -270.868 
7240 1955 70 15.9994 -0.8476 274.599 -176.073 -270.808 
4338 988 71 1.008 0.4238 321.527 -178.292 -216.425 
4339 988 70 15.9994 -0.8476 320.7 -178.752 -216.747 
5680 1435 70 15.9994 -0.8476 321.538 -179.316 -267.964 
3865 830 70 15.9994 -0.8476 315.413 -180.146 -218.714 
7837 2154 70 15.9994 -0.8476 269.177 -178.238 -170.046 
4337 988 71 1.008 0.4238 320.584 -178.583 -217.726 
5388 1338 71 1.008 0.4238 277.131 -77.7667 -319.29 
5864 1497 71 1.008 0.4238 274.977 -170.393 -217.06 
5866 1497 70 15.9994 -0.8476 273.991 -170.253 -217.151 
5679 1435 71 1.008 0.4238 322.491 -179.598 -268.072 
5865 1497 71 1.008 0.4238 273.75 -170.201 -218.12 
1897 174 70 15.9994 -0.8476 230.371 -365.336 -359.442 
10391 3006 71 1.008 0.4238 184.091 -170.289 -216.859 
949 68 20 1.008 0.032 223.362 -219.821 -226.017 
7760 2129 71 1.008 0.4238 277.492 -132.372 -75.8774 
5678 1435 71 1.008 0.4238 320.935 -180.085 -268.178 
9246 2624 71 1.008 0.4238 364.249 -215.721 -271.414 
7034 1887 71 1.008 0.4238 226.334 -216.007 -216.191 
5409 1345 71 1.008 0.4238 408.511 -270.147 -216.525 
7836 2154 71 1.008 0.4238 269.522 -178.585 -169.174 
3204 610 71 1.008 0.4238 270.384 -132.254 -273.292 
6476 1701 71 1.008 0.4238 277.575 -128.634 -224.892 
6478 1701 70 15.9994 -0.8476 277.335 -128.845 -223.945 
948 68 20 1.008 0.032 222.351 -218.646 -226.849 
10392 3006 71 1.008 0.4238 183.669 -169.367 -218.139 
2301 309 71 1.008 0.4238 368.15 -169.521 -316.462 
7987 2204 70 15.9994 -0.8476 369.438 -262.195 -128.388 
4256 961 71 1.008 0.4238 273.698 -216.063 -313.388 
7036 1887 70 15.9994 -0.8476 225.838 -215.371 -215.6 
231 17 67 15.9994 -0.611 277.617 -180.007 -175.317 
6233 1620 71 1.008 0.4238 277.547 -127.582 -169.821 
1102 79 20 1.008 0.032 273.598 -180.042 -226.823 
229 17 20 1.008 0.032 276.669 -179.923 -177.653 
6308 1645 71 1.008 0.4238 268.871 -262.865 -262.886 
4230 952 71 1.008 0.4238 286.607 -176.123 -223.048 
4231 952 70 15.9994 -0.8476 286.845 -176.67 -223.851 
2424 350 71 1.008 0.4238 379.72 -178.055 -311.926 
2617 414 70 15.9994 -0.8476 193.073 -219.553 -222.285 
2615 414 71 1.008 0.4238 193.507 -218.976 -221.593 
8254 2293 70 15.9994 -0.8476 376.384 -173.294 -226.489 
9817 2814 70 15.9994 -0.8476 279.576 -179.968 -126.694 
7439 2022 71 1.008 0.4238 419.28 -86.2977 -168.743 
3408 678 71 1.008 0.4238 324.755 -178.515 -223.182 
3409 678 70 15.9994 -0.8476 325.114 -178.1 -224.018 
6786 1804 71 1.008 0.4238 371.484 -220.209 -266.545 
1586 114 67 15.9994 -0.631 325.266 -171.592 -224.826 
6235 1620 70 15.9994 -0.8476 278.357 -127.154 -169.419 
2423 350 71 1.008 0.4238 378.199 -177.633 -311.509 
4908 1178 71 1.008 0.4238 239.519 -226.678 -128.564 
3407 678 71 1.008 0.4238 326.07 -177.842 -223.877 
3522 716 71 1.008 0.4238 376.364 8.4234 -220.366 
6726 1784 71 1.008 0.4238 284.313 -223.47 -273.121 
8253 2293 71 1.008 0.4238 377.043 -172.755 -225.965 
6477 1701 71 1.008 0.4238 277.826 -129.665 -223.651 
3005 544 71 1.008 0.4238 188.183 -225.464 -268.75 
3006 544 71 1.008 0.4238 187.288 -224.113 -268.949 
483 35 67 15.9994 -0.611 278.348 -177.712 -273.537 
489 35 21 1.008 0.398 277.897 -177.885 -272.642 
4909 1178 70 15.9994 -0.8476 239.407 -225.804 -128.091 
1896 174 71 1.008 0.4238 231.157 -365.679 -359.957 
10022 2883 71 1.008 0.4238 379.845 -221.328 -219.784 
9563 2730 71 1.008 0.4238 333.073 -266.677 -356.765 
5768 1465 71 1.008 0.4238 233.887 -175.277 -175.328 
1587 114 20 1.008 0.032 325.523 -173.514 -224.116 
9829 2818 70 15.9994 -0.8476 281.846 -226.05 -178.205 
5770 1465 70 15.9994 -0.8476 233.346 -175.99 -174.882 
5769 1465 71 1.008 0.4238 232.716 -175.571 -174.227 
1583 114 64 12.011 0.158 326.039 -172.717 -224.584 
1588 114 20 1.008 0.032 326.472 -173.234 -225.41 
6120 1582 71 1.008 0.4238 285.323 -215.399 -358.82 
6121 1582 70 15.9994 -0.8476 285.353 -215.698 -357.866 
6119 1582 71 1.008 0.4238 284.908 -216.59 -357.782 
9564 2730 71 1.008 0.4238 332.144 -267.694 -355.888 
9135 2587 71 1.008 0.4238 235.49 -314.973 -178.761 
4229 952 71 1.008 0.4238 286.186 -176.495 -224.582 
7366 1997 70 15.9994 -0.8476 373.364 -216.381 -217.99 
7364 1997 71 1.008 0.4238 373.735 -217.142 -217.457 
9136 2587 70 15.9994 -0.8476 234.969 -315.55 -178.131 