LAMMPS data file via write_data, version 21 Feb 2017, timestep = 10000

10411 atoms
71 atom types
7399 bonds
254 bond types
5512 angles
155 angle types
3375 dihedrals
47 dihedral types
125 impropers
5 improper types

0.0000000000000000e+00 1.0000000000000000e+02 xlo xhi
0.0000000000000000e+00 1.0000000000000000e+02 ylo yhi
0.0000000000000000e+00 1.0000000000000000e+02 zlo zhi

Masses

1 15.9994
2 15.9994
3 15.9994
4 15.9994
5 15.9994
6 14.0067
7 14.0067
8 14.0067
9 14.0067
10 14.0067
11 14.0067
12 12.011
13 12.011
14 13.019
15 14.027
16 15.035
17 16.043
18 14.027
19 12.011
20 1.008
21 1.008
22 1
23 32.06
24 63.546
25 63.546
26 55.847
27 65.37
28 24.305
29 40.08
30 39.948
31 18.9984
32 35.453
33 79.904
34 12.011
35 15.9994
36 22.9898
37 35.453
38 12.011
39 35.453
40 1.008
41 32.06
42 12.011
43 15.9994
44 12.011
45 35.453
46 18.9984
47 12.011
48 13.019
49 15.9994
50 12.011
51 15.9994
52 14.0067
53 15.035
54 126.904
55 35.453
56 10.811
57 78.96
58 1.008
59 35.453
60 79.904
61 15.9994
62 14.0067
63 12.011
64 12.011
65 14.0067
66 14.0067
67 15.9994
68 28.08
69 30.9738
70 15.9994
71 1.008

Pair Coeffs # lj/cut/coul/long

1 0.305714 2.76007
2 0.412295 2.62585
3 0.203061 2.95484
4 0.252656 2.84916
5 0.155394 3.16565
6 0.152915 3.13647
7 0.0700622 3.5722
8 0.152915 3.13647
9 0.104651 3.34113
10 0.152915 3.13647
11 0.152915 3.13647
12 0.0663015 3.58118
13 0.00167194 6.63949
14 0.0226791 5.01918
15 0.098122 4.07038
16 0.207254 3.74792
17 0.302012 3.70995
18 0.11455 3.95474
19 0.120138 3.74119
20 0.0282937 2.37341
21 0 0
22 0 0
23 0.455513 3.30769
24 2.039 1.5184
25 2.039 1.5184
26 0 0
27 1.107 1.68112
28 0.0747249 1.93323
29 0.121156 2.81311
30 0.238148 3.40984
31 0.10897 2.94006
32 0.300087 3.46982
33 0.69792 3.6508
34 0.243126 3.60124
35 0.131455 3.17694
36 0.00509651 3.12117
37 0.162149 4.09571
38 0.101741 3.40006
39 0.299511 3.44
40 0.0197496 2.20219
41 0.310038 3.55995
42 0.207254 3.74792
43 0.409923 2.63004
44 0.0544087 3.7739
45 0.270582 3.44757
46 0.0828967 3.07717
47 0.0970049 3.3611
48 0.117014 3.91992
49 0.203061 2.95484
50 0.105027 3.74991
51 0.210013 2.95998
52 0.169966 3.25006
53 0.207254 3.74792
54 0.836845 3.84961
55 0.329921 3.26983
56 0.0663015 3.58118
57 0.455513 3.30769
58 0 0
59 0.329921 3.26983
60 0.580843 3.89995
61 0.119432 3.40025
62 0.1399 3.9019
63 0.0734574 3.52053
64 0.245018 2.81144
65 0.142655 4.06776
66 0.219779 3.64529
67 0.119497 3.1
68 0.584786 3.38557
69 0.584786 3.38557
70 0.1553 3.166
71 0 0

Bond Coeffs # harmonic

1 375.239 1
2 446.941 1
3 349.274 1.09
4 1109.29 1.12
5 600.242 1.23
6 500.418 1.25
7 499.732 1.32
8 375.003 1.33
9 448.144 1.33
10 498.877 1.33
11 450.617 1.34
12 502.116 1.34
13 450.906 1.36
14 500.679 1.38
15 399.904 1.39
16 498.726 1.39
17 400.057 1.4
18 399.792 1.43
19 450.132 1.43
20 300.222 1.435
21 449.843 1.47
22 299.976 1.48
23 399.968 1.48
24 450.226 1.48
25 450.108 1.5
26 299.844 1.52
27 400.034 1.53
28 299.851 1.61
29 299.727 1.63
30 205.976 1.78
31 449.816 1.78
32 449.828 1.83
33 300.045 1.87
34 59.9679 1.98
35 60.0382 2
36 500.307 2.04
37 63.0357 2.21
38 554.493 1
39 349.928 1.1
40 599.794 1.758
41 449.829 1.53
42 444.341 1.93799
43 599.679 1.76
44 501.026 1.265
45 448.656 1.35
46 555.129 1.63299
47 350.249 2.33839
48 600.161 2.90283
49 445.884 2.79388
50 443.815 2.91189
51 409.328 2.077
52 600.173 2.87407
53 88.4321 1.1
54 56.1663 1.84
55 513.862 1.01
56 310.707 1.41
57 442.161 1.02
58 239.006 1.46
59 513.862 1.29
60 442.161 0.972
61 812.62 1.22
62 466.061 1.22
63 239.006 1.54
64 179.254 1.56
65 227.055 1.54
66 106.358 1.76
67 131.453 1.69
68 203.155 1.75
69 203.155 1.51
70 143.403 1.57
71 179.254 0.971
72 191.205 1.5
73 262.906 1.45
74 549.713 1.52
75 83.652 1.03
76 191.205 1.74
77 191.205 1.72
78 227.055 1.64
79 203.155 1.67
80 191.205 1.66
81 215.105 1.65
82 513.862 1.31
83 155.354 1.01
84 35.8509 1.89
85 101.577 1.93
86 155.354 1.36
87 167.304 1.79
88 114.723 1.35
89 155.354 1.39
90 203.155 1.38
91 227.055 0.983
92 155.354 1.3
93 418.26 1.08
94 155.354 1.9
95 1314.53 1.16
96 143.403 1.8
97 155.354 1.42
98 478.011 0.984
99 119.503 1.08
100 119.503 1.91
101 418.26 1.03
102 525.813 1.28
103 131.453 1.22
104 143.403 1.11
105 1195.03 1.21
106 466.061 1.07
107 956.023 1.21
108 693.117 1.21
109 87.2371 1.85
110 394.359 1.11
111 109.943 2.09
112 131.453 1.82
113 99.1874 1.96
114 56.1663 1.86
115 167.304 1.21
116 167.304 1.28
117 143.403 1.71
118 131.453 1.6
119 454.111 1.21
120 41.826 1.61
121 131.453 1.94
122 155.354 1.59
123 143.403 2.1
124 119.503 2.12
125 57.3614 2.13
126 203.155 1.26
127 1195.03 1.14
128 191.205 1.23
129 788.719 1.3
130 239.006 1.31
131 59.7514 2.04
132 82.457 1.34
133 621.415 0.938
134 310.707 1.16
135 34.6558 2.07
136 60.9465 1.16
137 93.2122 2.16
138 43.021 2.23
139 23.9006 2.05
140 896.272 1.19
141 728.967 1.47
142 394.359 1.57
143 1195.03 1.18
144 54.9713 1.87
145 1063.58 1.17
146 215.105 1.13
147 59.7514 2.02
148 179.254 1.07
149 250.956 1.14
150 155.354 1.06
151 537.763 1.46
152 812.62 1.17
153 92.0172 2.15
154 239.006 1.04
155 60.9465 1.4
156 1314.53 1.11
157 466.061 1.56
158 752.868 1.49
159 501.912 1.54
160 35.8509 2.17
161 35.8509 2.27
162 669.216 1.45
163 764.818 1.25
164 848.47 1.27
165 561.663 1.16
166 1434.03 1.14
167 501.912 1.17
168 537.763 1.19
169 920.172 1.14
170 227.055 1.24
171 1434.03 1.13
172 89.6272 2.91
173 57.3614 2.24
174 418.26 0.743
175 239.006 1.2
176 111.138 2.33
177 96.7973 2.42
178 83.652 1.32
179 1159.18 1.2
180 1314.53 1.2
181 430.21 1.58
182 53.7763 1.47
183 1.55354 2.77
184 5.13862 2.25
185 100.382 2.18
186 50.1912 1.52
187 93.2122 2.19
188 27.4857 1.48
189 1912.05 1.07
190 8.60421 2.8
191 87.2371 2.52
192 0.669216 2.79
193 812.62 1.16
194 1.79254 2.68
195 406.31 1.59
196 119.503 1.18
197 34.6558 2.54
198 1792.54 1.1
199 824.57 1.29
200 33.4608 2.44
201 107.553 2.41
202 112.333 2.36
203 20.3155 1.43
204 2.27055 2.57
205 19.1205 2.47
206 0.764818 2.71
207 1553.54 1.12
208 3.70459 2.75
209 501.912 1.14
210 0.717017 2.86
211 10.5163 2.64
212 1912.05 0.985
213 1.91205 2.61
214 7.40918 2.62
215 59.7514 2.46
216 3.58509 2.66
217 1.31453 2.72
218 58.5564 1.63
219 573.614 1.12
220 37.0459 2.32
221 16.7304 1.44
222 1553.54 1.16
223 7.17017 2.69
224 10.0382 2.49
225 3.22658 2.92
226 0.82457 2.29
227 9.79924 2.4
228 1.03967 2.37
229 1.55354 2.94
230 5.85564 2.95
231 1.67304 2.96
232 0.0131453 2.56
233 5.25813 2.59
234 15.5354 2.38
235 836.52 1.12
236 1.91205 2.5
237 2.39006 2.3
238 585.564 1.04
239 3.34608 2.99
240 0.967973 2.34
241 1.07553 2.98
242 2.27055 2.74
243 1063.58 1.16
244 812.62 1.5
245 1.31453 2.84
246 0.322658 2.82
247 908.222 1.23
248 466.061 1.05
249 3.34608 2.88
250 1434.03 1.18
251 1673.04 1.15
252 6.33365 2.9
253 0 0
254 100 1

Angle Coeffs # harmonic

1 45.3116 90
2 50.0917 90
3 47.7712 96
4 54.9551 100
5 47.5559 103
6 55.0345 104
7 50.1709 108
8 30.1731 109.5
9 33.8897 109.5
10 40.2609 109.5
11 45.0394 109.5
12 47.694 109.5
13 55.1272 109.5
14 47.635 109.6
15 55.1139 111
16 55.0997 113
17 4.824 115
18 45.0699 115
19 59.7937 115
20 44.8085 116
21 59.7719 116
22 60.1639 117
23 34.88 120
24 39.8095 120
25 45.1871 120
26 47.4278 120
27 50.1166 120
28 59.9756 120
29 69.8346 120
30 60.0726 121
31 60.091 122
32 34.8146 123
33 59.8929 124
34 30.0075 125
35 60.0779 125
36 44.9139 126
37 49.998 126
38 60.166 126
39 50.1189 132
40 47.5187 155
41 28.4971 180
42 45.9951 109.5
43 52.4767 107.57
44 65.472 111.3
45 55.0189 97.4
46 55.0247 106.75
47 47.5019 108.53
48 65.5335 109.5
49 54.9566 107.6
50 47.4817 109.5
51 54.9931 110.3
52 55.0234 111.4
53 60.044 117.2
54 60.0023 121.4
55 48.24 180
56 180.46 109
57 192.229 106
58 145.153 126
59 145.153 96.2
60 156.922 114
61 203.998 119
62 239.306 130
63 298.152 107
64 156.922 134
65 239.306 101
66 286.382 113
67 368.766 134
68 356.997 119
69 333.459 126
70 251.075 89.6
71 380.536 114
72 286.382 135
73 145.153 88.3
74 133.384 60
75 380.536 179
76 251.075 180
77 470.766 178
78 47.0766 59.9
79 47.0766 60.3
80 251.075 124
81 706.149 118
82 117.691 144
83 627.688 123
84 470.766 118
85 333.459 94.8
86 90.2301 175
87 156.922 82.8
88 117.691 77.6
89 239.306 145
90 251.075 50.8
91 380.536 104
92 262.844 84.4
93 215.768 63.3
94 215.768 61
95 298.152 173
96 192.229 173
97 82.384 50.9
98 431.535 127
99 62.7688 67.8
100 156.922 180
101 588.457 118
102 30.1731 110
103 227.537 94.8
104 431.535 173
105 34.5228 78.5
106 70.6149 138
107 70.6149 168
108 156.922 167
109 18.046 149
110 333.459 144
111 356.997 148
112 321.69 144
113 356.997 148
114 321.69 147
115 333.459 144
116 5099.96 60.8
117 1451.53 68
118 298.152 161
119 156.922 155
120 309.921 154
121 215.768 75.3
122 309.921 64.7
123 549.227 173
124 3334.59 45.8
125 863.071 123
126 549.227 123
127 470.766 166
128 380.536 166
129 203.998 139
130 66.6918 161
131 7.45379 44.9
132 25.1075 84.8
133 192.229 161
134 333.459 70.4
135 627.688 173
136 1.92229 51.6
137 21.5768 73.3
138 7.45379 174
139 470.766 132
140 145.153 69.9
141 15.6922 144
142 1922.29 97.9
143 392.305 155
144 588.457 104
145 117.691 149
146 509.996 157
147 286.382 166
148 333.459 89.8
149 392.305 79.1
150 6669.18 45.2
151 470.766 101
152 745.379 125
153 168.691 49.6
154 509.996 112
155 100 109.47

Dihedral Coeffs # harmonic

1 0.638145 -1 1
2 0.81501 -1 1
3 1.18786 -1 1
4 1.40057 -1 1
5 2.2347 -1 1
6 2.2586 -1 1
7 0.666826 1 1
8 1.27868 1 1
9 0.365679 -1 2
10 1.40057 -1 2
11 1.69933 -1 2
12 3.9914 -1 2
13 5.73614 -1 2
14 8.00669 -1 2
15 9.99044 -1 2
16 0 1 2
17 0.0999044 1 2
18 0.499522 1 2
19 0.750478 1 2
20 1.21654 1 2
21 3.9914 1 2
22 0.250956 1 3
23 0.301147 1 3
24 0.310707 1 3
25 0.604685 1 3
26 0.700287 1 3
27 0.762428 1 3
28 0.872371 1 3
29 0.901052 1 3
30 0.932122 1 3
31 0.999044 1 3
32 1.12094 1 3
33 1.30019 1 3
34 1.41491 1 3
35 1.83795 1 3
36 2.06023 1 3
37 2.27055 1 3
38 0 1 4
39 0.239006 -1 6
40 0.239006 1 6
41 0.901052 1 6
42 0.83652 -1 2
43 0.669216 1 3
44 0.167304 -1 6
45 0.0956023 1 6
46 0.239006 -1 3
47 0 1 1

Improper Coeffs # harmonic

1 20.0075 0
2 40.0151 35.2644
3 80.0302 0
4 20.0075 180
5 40.0151 -35.2644

Atoms # full

12 1 58 4.1699999999999998e-01 8.3907509857974727e+00 5.7049280474433157e+00 3.3555174879506695e+00 0 0 0
9 1 67 -6.3100000000000001e-01 8.7870505449723808e+00 6.4097836734527087e+00 3.1670227793048706e+00 0 0 0
2050 225 70 -8.4760000000000002e-01 5.1900912655001390e+00 5.0756173439567425e+00 1.0653604836147537e+01 0 0 0
1983 203 71 4.2380000000000001e-01 9.8668007749640978e+00 1.0267089852204762e+01 1.6332829226024130e+00 0 0 0
2105 244 71 4.2380000000000001e-01 7.0194338096503497e+00 3.3806201851977526e+00 3.5456060716819895e+00 0 0 0
2107 244 70 -8.4760000000000002e-01 7.7713664802194025e+00 3.9909525118686386e+00 3.3004636077702392e+00 0 0 0
2106 244 71 4.2380000000000001e-01 8.2663150800980407e+00 3.6125406585644471e+00 2.5195449590283254e+00 0 0 0
4124 917 71 4.2380000000000001e-01 3.7147437792286453e+01 3.1450938417640328e+00 5.8335704029507713e+00 0 1 0
8456 2361 71 4.2380000000000001e-01 4.5594046563339404e+01 4.8411848481842078e+01 1.4640220990452447e+01 0 0 0
8 1 20 3.1000000000000000e-02 9.0011856729802364e+00 6.3564441660386191e+00 6.0288862199515485e+00 0 0 0
1 1 64 1.5800000000000000e-01 9.9142004037606402e+00 8.2383663076765412e+00 6.2905813045660040e+00 0 0 0
5 1 20 3.2000000000000001e-02 9.4387297969393735e+00 8.4455917266226468e+00 7.2907950822427541e+00 0 0 0
6 1 20 3.2000000000000001e-02 1.0117002644253484e+01 9.1703931699922361e+00 5.8247020143787704e+00 0 0 0
3 1 64 1.5800000000000000e-01 9.6572225873550810e+00 7.0633832413518780e+00 4.0635006544839811e+00 0 0 0
11 1 20 3.2000000000000001e-02 1.0077067514577029e+01 8.0229504812865073e+00 3.6486977142794217e+00 0 0 0
2 1 12 1.6600000000000001e-01 9.0188340932064257e+00 7.3056100296600910e+00 5.4640147465376270e+00 0 0 0
14 1 21 4.1699999999999998e-01 1.1858637843335165e+01 7.9235619508228172e+00 6.0305502626274148e+00 0 0 0
4 1 67 -6.3100000000000001e-01 1.1147181110611546e+01 7.5746970597689156e+00 6.6223849451402375e+00 0 0 0
10 1 20 3.2000000000000001e-02 1.0493032751775766e+01 6.3535009394082982e+00 4.2155484782136803e+00 0 0 0
1806 144 71 4.2380000000000001e-01 1.2430857382369407e+01 6.3303902943457686e+00 1.4612889782742717e+00 0 0 0
1805 144 71 4.2380000000000001e-01 1.0821869578570045e+01 6.5945196619189321e+00 1.4093740117313023e+00 0 0 0
1807 144 70 -8.4760000000000002e-01 1.1609726488902872e+01 6.4744037284277232e+00 2.0117498771829365e+00 0 0 0
3971 866 71 4.2380000000000001e-01 1.1544757050733732e+01 4.6250632991283123e+00 4.6417069602507821e+00 0 1 0
3972 866 71 4.2380000000000001e-01 1.2172246489069986e+01 4.4734864373183445e+00 3.1435138109101222e+00 0 1 0
3973 866 70 -8.4760000000000002e-01 1.2389377901178003e+01 4.5280502365072293e+00 4.1171050581213082e+00 0 1 0
7 1 67 -6.1099999999999999e-01 7.7068471339424027e+00 7.8847267953248590e+00 5.4340016197106840e+00 0 0 0
13 1 21 3.9800000000000002e-01 7.0698527772739865e+00 7.3098581174419284e+00 5.0588429251592384e+00 0 0 0
1877 168 71 4.2380000000000001e-01 1.4025949961519334e+01 7.7613276795718322e+00 4.7341006385701405e+00 0 0 0
2127 251 71 4.2380000000000001e-01 1.3843642692735347e+01 3.3194484008360607e+00 1.1573233932090439e+00 0 0 0
2128 251 70 -8.4760000000000002e-01 1.3419592773894443e+01 4.2186315525766975e+00 1.2555802440031845e+00 0 0 0
2126 251 71 4.2380000000000001e-01 1.3902440686213010e+01 4.7395169636618419e+00 1.9581038293665827e+00 0 0 0
3708 778 71 4.2380000000000001e-01 9.0197179829014438e+00 1.2937399620006345e+00 1.3257288148035948e+00 0 0 1
1827 151 71 4.2380000000000001e-01 4.2749623393878387e+01 4.0677379105704148e+01 2.3261788452826309e+01 0 0 0
3724 783 70 -8.4760000000000002e-01 2.9501676262591157e+01 4.9668346222217092e+00 3.1407966296875234e+00 0 0 1
3722 783 71 4.2380000000000001e-01 3.0286893240635315e+01 5.2687978402548676e+00 2.6020428277762049e+00 0 0 1
3723 783 71 4.2380000000000001e-01 2.9455495744756455e+01 3.9689436393132280e+00 3.1316262167532165e+00 0 0 1
3406 677 70 -8.4760000000000002e-01 2.8024509375809064e+01 2.2471771018484041e+00 3.8317587425174064e+00 0 0 1
3405 677 71 4.2380000000000001e-01 2.7281003287966694e+01 1.6812417778680249e+00 3.4783200582605893e+00 0 0 1
3404 677 71 4.2380000000000001e-01 2.7685846357470179e+01 2.8096516025605740e+00 4.5847081410132962e+00 0 0 1
2053 226 70 -8.4760000000000002e-01 3.1639791471325051e+01 8.0587330313805516e+00 4.9912151371390410e+00 0 0 0
2051 226 71 4.2380000000000001e-01 3.1871998149145231e+01 7.5063310860509986e+00 5.7905498586000723e+00 0 0 0
2165 264 71 4.2380000000000001e-01 2.8705604840372967e+01 7.1744722700764232e+00 6.1511370180974207e+00 0 0 0
2166 264 71 4.2380000000000001e-01 2.9639240618607872e+01 6.6658636382034802e+00 7.3884497320637541e+00 0 0 0
1935 187 71 4.2380000000000001e-01 2.9575867093400127e+01 4.7436732794605305e+01 2.4622948076664787e+01 0 0 0
6437 1688 71 4.2380000000000001e-01 4.9088580706586072e+01 4.8845082560805601e+01 1.2100470407199291e+01 0 0 0
103 8 20 3.2000000000000001e-02 4.9169418876335776e+01 3.4723792333712225e+01 6.5448125199896108e+00 0 0 0
5717 1448 71 4.2380000000000001e-01 2.7523510088960499e+01 9.4039481944003871e+00 1.1845043914652293e+00 0 1 1
5966 1531 71 4.2380000000000001e-01 4.5963850226302903e+01 2.8059270766515500e+01 1.2081179479319838e+01 0 0 0
2249 292 71 4.2380000000000001e-01 2.7722623868221270e+01 5.5931074227941284e+00 8.3887396835434966e+00 0 0 0
2167 264 70 -8.4760000000000002e-01 2.8700212155610306e+01 6.7643857386551849e+00 7.0620723976200894e+00 0 0 0
2029 218 70 -8.4760000000000002e-01 2.9245082006104816e+01 7.7140914959366480e+00 4.0315570218449812e+00 0 0 0
2027 218 71 4.2380000000000001e-01 3.0155427198442542e+01 7.8965255318531211e+00 4.4003286329085212e+00 0 0 0
2028 218 71 4.2380000000000001e-01 2.9140675841520476e+01 6.7333903233456480e+00 3.8724106288612692e+00 0 0 0
5718 1448 71 4.2380000000000001e-01 2.8010927302657418e+01 8.1118013774156168e+00 2.0528835374915824e+00 0 1 1
2761 462 70 -8.4760000000000002e-01 2.5707592494041648e+01 4.7415689303772758e+01 2.1926308492629275e+01 0 0 0
5719 1448 70 -8.4760000000000002e-01 2.7929815828507142e+01 8.4927621698546041e+00 1.1329417357674298e+00 0 1 1
2052 226 71 4.2380000000000001e-01 3.2295580527027326e+01 8.8070155383275956e+00 4.9016743317014200e+00 0 0 0
1982 203 71 4.2380000000000001e-01 9.3645820988696933e+00 9.1661225738378178e+00 2.7273344253079959e+00 0 0 0
1950 192 71 4.2380000000000001e-01 6.2613579435250770e+00 9.3380049625736525e+00 1.6786185961006788e+00 0 0 0
1949 192 71 4.2380000000000001e-01 6.9999335606792741e+00 1.0659772274576508e+01 2.2858569993781530e+00 0 0 0
1951 192 70 -8.4760000000000002e-01 6.2334069121515023e+00 1.0029243645756479e+01 2.3993203846784090e+00 0 0 0
2021 216 71 4.2380000000000001e-01 4.9330482797316639e+00 1.1536177288612262e+01 3.5823795217819900e+00 0 0 0
2023 216 70 -8.4760000000000002e-01 5.3392243535508523e+00 1.2166208073427919e+01 4.2427475573484097e+00 0 0 0
2022 216 71 4.2380000000000001e-01 6.3260869780988420e+00 1.2016159759891213e+01 4.2826375149216052e+00 0 0 0
1984 203 70 -8.4760000000000002e-01 9.1173816510693335e+00 9.6606835321076314e+00 1.8952860024497076e+00 0 0 0
1878 168 71 4.2380000000000001e-01 1.2697755700932994e+01 6.9812522161889046e+00 4.1968077642128492e+00 0 0 0
1879 168 70 -8.4760000000000002e-01 1.3032611592578149e+01 7.6916305199980552e+00 4.8142521543035919e+00 0 0 0
3620 749 71 4.2380000000000001e-01 9.8100989316969915e+00 1.3589557627732098e+01 5.7159922852921676e+00 0 0 1
3622 749 70 -8.4760000000000002e-01 9.8727950116771854e+00 1.2682352474962217e+01 5.3024091188705684e+00 0 0 1
2268 298 71 4.2380000000000001e-01 1.1074706827275342e+01 1.1402386959721165e+01 3.8210982815339531e+00 0 0 0
3621 749 71 4.2380000000000001e-01 9.0731660855779612e+00 1.2142385611113097e+01 5.5613160631459637e+00 0 0 1
2269 298 70 -8.4760000000000002e-01 1.1320070608631694e+01 1.0660315423103269e+01 3.1989008069544314e+00 0 0 0
2179 268 70 -8.4760000000000002e-01 7.5191702959520050e+00 1.0992326036911242e+01 6.0284581235080399e+00 0 0 0
2177 268 71 4.2380000000000001e-01 7.5138873012937717e+00 1.0062777925610051e+01 6.3944027724714925e+00 0 0 0
2178 268 71 4.2380000000000001e-01 6.6079631425567271e+00 1.1391452069395909e+01 6.1201261088628733e+00 0 0 0
2044 223 70 -8.4760000000000002e-01 1.2968465686313657e+01 1.4107076245796216e+01 4.3544733479603535e+00 0 0 0
2042 223 71 4.2380000000000001e-01 1.2729883395338435e+01 1.4129540442445169e+01 5.3243072343315410e+00 0 0 0
3593 740 71 4.2380000000000001e-01 1.2748100788694922e+01 1.4863471684000992e+01 7.4875887562208545e+00 0 0 1
3595 740 70 -8.4760000000000002e-01 1.2408440624693000e+01 1.4049558597419942e+01 7.0183557387755364e+00 0 0 1
3594 740 71 4.2380000000000001e-01 1.2095089259202890e+01 1.3382696813801399e+01 7.6929740830038620e+00 0 0 1
3388 671 70 -8.4760000000000002e-01 1.1860903140572221e+01 1.1739557317541314e+01 8.4544530645133289e+00 0 0 1
3387 671 71 4.2380000000000001e-01 1.1421910082276554e+01 1.1782011630311590e+01 7.5580793349308815e+00 0 0 1
3386 671 71 4.2380000000000001e-01 1.1856267003025620e+01 1.0796190051460977e+01 8.7831471381368438e+00 0 0 1
2267 298 71 4.2380000000000001e-01 1.2086958697787724e+01 1.0145970772862231e+01 3.5801294209561130e+00 0 0 0
10397 3008 71 4.2380000000000001e-01 3.5318688784317665e+01 9.5925303018731398e+00 8.8542878696274681e+00 0 1 1
10398 3008 71 4.2380000000000001e-01 3.5508480322329007e+01 1.0726879540961091e+01 7.6973383320195428e+00 0 1 1
10399 3008 70 -8.4760000000000002e-01 3.5407111885871188e+01 9.7484126376005946e+00 7.8714933590636571e+00 0 1 1
4163 930 71 4.2380000000000001e-01 3.6233419609724471e+01 1.3087471058486591e+01 6.0727960403432810e+00 0 1 0
4165 930 70 -8.4760000000000002e-01 3.6772188575631368e+01 1.2246433093607459e+01 6.0531456056104913e+00 0 1 0
4164 930 71 4.2380000000000001e-01 3.7685335135213357e+01 1.2427404554852053e+01 6.4156586227573893e+00 0 1 0
2271 299 71 4.2380000000000001e-01 3.3931757337771799e+01 9.3969426597589987e+00 6.2295932449415377e+00 0 0 0
2272 299 70 -8.4760000000000002e-01 3.4103692108827346e+01 9.4413787886593639e+00 5.2465026626750495e+00 0 0 0
5924 1517 71 4.2380000000000001e-01 4.9326325243178587e+01 1.6200592648637997e+01 1.0416876571832221e+00 0 0 0
5926 1517 70 -8.4760000000000002e-01 4.8367079038973735e+01 1.6007744078746356e+01 8.4004651309017142e-01 0 0 0
1866 164 71 4.2380000000000001e-01 1.8614755168186706e-01 1.9306924718285380e+01 2.1125513658376210e+01 0 0 0
1778 135 71 4.2380000000000001e-01 3.0675446359082763e+01 8.3127857083400905e+00 9.0329777093136077e-01 0 0 0
2755 460 70 -8.4760000000000002e-01 2.4703003233632192e+01 1.3980842161718959e+01 2.2258043110674304e+01 0 0 0
2043 223 71 4.2380000000000001e-01 1.3024371741001293e+01 1.3158146203602247e+01 4.0472122894218208e+00 0 0 0
2239 288 70 -8.4760000000000002e-01 1.1618607222274274e+01 2.3276270360722524e+01 2.2063837968303064e+00 0 0 0
2238 288 71 4.2380000000000001e-01 1.1274095986480267e+01 2.2338981938369741e+01 2.1780039116160661e+00 0 0 0
2237 288 71 4.2380000000000001e-01 1.2303340473006353e+01 2.3401191134020557e+01 1.4897680195808700e+00 0 0 0
79 6 67 -6.3100000000000001e-01 1.3524981877360473e+01 2.5150513321151184e+01 4.4088043585850079e+00 0 0 0
2074 233 70 -8.4760000000000002e-01 4.3246799817589356e+01 2.0592714836196617e+01 3.5458912802475040e+00 0 0 0
2073 233 71 4.2380000000000001e-01 4.3704250255981840e+01 2.1064312047739207e+01 2.7933367243627836e+00 0 0 0
2072 233 71 4.2380000000000001e-01 4.2985909776599804e+01 2.1256571990532940e+01 4.2453437697981888e+00 0 0 0
104 8 20 3.2000000000000001e-02 4.9911676980961261e+01 3.4291517199771441e+01 5.0059545018779410e+00 0 0 0
1799 142 71 4.2380000000000001e-01 7.1315529620561966e+00 1.6146609516445302e+01 2.4759545115658703e+01 0 0 0
2225 284 71 4.2380000000000001e-01 4.2052712409860987e+01 2.5833817211780936e+01 2.5940988939403304e+00 0 0 0
2227 284 70 -8.4760000000000002e-01 4.2480112995168902e+01 2.5022148402917022e+01 2.9897319374071105e+00 0 0 0
2759 462 71 4.2380000000000001e-01 2.5057294034722137e+01 4.7323697635364908e+01 2.2679071805321730e+01 0 0 0
6242 1623 71 4.2380000000000001e-01 3.8015624170662976e+00 1.3512597743848728e+01 4.4006683314808246e+00 1 0 0
2226 284 71 4.2380000000000001e-01 4.1847392229919350e+01 2.4251189201501390e+01 2.9323790093316280e+00 0 0 0
5968 1531 70 -8.4760000000000002e-01 4.5496324657061834e+01 2.7256249896958213e+01 1.1714327315462116e+01 0 0 0
1960 195 70 -8.4760000000000002e-01 4.2465437242416613e+01 1.9904369888231066e+01 9.9319304571526079e-01 0 0 0
1959 195 71 4.2380000000000001e-01 4.2908115232672145e+01 1.9985558632661910e+01 1.8850729000135722e+00 0 0 0
4132 919 70 -8.4760000000000002e-01 2.7256679844503886e+01 4.9808632010725212e+01 2.2301411045387066e+01 0 0 0
6439 1688 70 -8.4760000000000002e-01 4.9619910137165519e+01 4.9637665388781350e+01 1.1804658720099381e+01 0 0 0
1958 195 71 4.2380000000000001e-01 4.1836055446415152e+01 2.0669175898426722e+01 8.6298762206139901e-01 0 0 0
1898 175 71 4.2380000000000001e-01 4.2080783524677415e+01 2.3237921161850061e+01 6.1574399548979395e+00 0 0 0
1899 175 71 4.2380000000000001e-01 4.2540464979448807e+01 2.3882715729752690e+01 4.7311740740620358e+00 0 0 0
1900 175 70 -8.4760000000000002e-01 4.2389057031526463e+01 2.3030565548955863e+01 5.2300918187489280e+00 0 0 0
2219 282 71 4.2380000000000001e-01 2.6428372398636647e+01 1.6996823033812287e+01 2.4109910408976194e+01 0 0 0
1955 194 71 4.2380000000000001e-01 9.9773282601067539e+00 2.5085409443114560e+01 4.0440324551873514e+00 0 0 0
2117 248 71 4.2380000000000001e-01 1.1270162706230344e+01 2.7774973554386989e+01 8.8799284994144256e-01 0 0 0
2118 248 71 4.2380000000000001e-01 1.0066793623459025e+01 2.6766315446920885e+01 1.3305003808664644e+00 0 0 0
1957 194 70 -8.4760000000000002e-01 9.3659012747336696e+00 2.5474799748492138e+01 3.3566202580006586e+00 0 0 0
1956 194 71 4.2380000000000001e-01 8.8185411609759434e+00 2.4746395530295796e+01 2.9469529965049874e+00 0 0 0
6239 1622 71 4.2380000000000001e-01 9.4858589969398022e+00 2.9265561334388600e+01 5.4184560657453149e+00 1 0 0
6241 1622 70 -8.4760000000000002e-01 9.8690855519362319e+00 2.9706456255603648e+01 6.2288590618989099e+00 1 0 0
6240 1622 71 4.2380000000000001e-01 9.3132902189858484e+00 3.0500772912162887e+01 6.4700139784975050e+00 1 0 0
71 6 64 1.5800000000000000e-01 1.0766456422939536e+01 2.6532842495628685e+01 6.7652223201186867e+00 0 0 0
76 6 20 3.2000000000000001e-02 1.0000625524300697e+01 2.6887088632339086e+01 6.0290602996040565e+00 0 0 0
83 6 21 3.9800000000000002e-01 1.1464700378816497e+01 2.3898050567057151e+01 5.2065956853244995e+00 0 0 0
77 6 67 -6.1099999999999999e-01 1.0956445900182290e+01 2.4467029601873545e+01 5.7037909405279201e+00 0 0 0
72 6 12 1.6600000000000001e-01 1.1751876500534873e+01 2.5555470230673066e+01 6.1289024417404123e+00 0 0 0
78 6 20 3.1000000000000000e-02 1.2464984902987570e+01 2.5217911847613333e+01 6.9067035299017174e+00 0 0 0
84 6 21 4.1699999999999998e-01 1.0834148864437450e+01 2.8411531975398596e+01 7.0373173767242916e+00 0 0 0
73 6 64 1.5800000000000000e-01 1.2590480043437582e+01 2.6134296522213891e+01 4.9616767248733282e+00 0 0 0
80 6 20 3.2000000000000001e-02 1.3136754958268742e+01 2.6945168106266255e+01 5.3618908462768307e+00 0 0 0
81 6 20 3.2000000000000001e-02 1.1906114004464371e+01 2.6452081815127176e+01 4.2496969959706803e+00 0 0 0
2116 247 70 -8.4760000000000002e-01 8.7989366505472741e+00 2.8226601755448559e+01 4.1119507160502113e+00 0 0 0
2114 247 71 4.2380000000000001e-01 8.6573275937184242e+00 2.7330935166719357e+01 3.6927469275049578e+00 0 0 0
2115 247 71 4.2380000000000001e-01 9.1972866573734073e+00 2.8849461221520833e+01 3.4401125081620862e+00 0 0 0
2119 248 70 -8.4760000000000002e-01 1.0286194058240630e+01 2.7697305760359669e+01 1.0421888851664796e+00 0 0 0
75 6 20 3.2000000000000001e-02 1.0275071921902905e+01 2.5947896381208579e+01 7.5110663444118178e+00 0 0 0
74 6 67 -6.3100000000000001e-01 1.1397656453477371e+01 2.7655321439683917e+01 7.3542391038449191e+00 0 0 0
3691 772 70 -8.4760000000000002e-01 1.2180182966804937e+01 2.6152509896699705e+01 9.3427513634422183e+00 0 0 1
3690 772 71 4.2380000000000001e-01 1.2056679261297862e+01 2.6845026926289705e+01 8.6334065791619032e+00 0 0 1
3517 714 70 -8.4760000000000002e-01 3.1737330175520977e+01 3.0190005266468045e+01 1.0247311549090695e+01 0 0 1
3554 727 71 4.2380000000000001e-01 3.2116857682253638e+01 2.8096151618740066e+01 1.0133028563963210e+01 0 0 1
3555 727 71 4.2380000000000001e-01 3.2494672655824495e+01 2.6563818178625798e+01 9.7200981602719470e+00 0 0 1
3516 714 71 4.2380000000000001e-01 3.2482837906263768e+01 3.0852230181436056e+01 1.0186653248708716e+01 0 0 1
3515 714 71 4.2380000000000001e-01 3.1085756077070098e+01 3.0353476384194146e+01 9.5078973036319532e+00 0 0 1
4308 978 71 4.2380000000000001e-01 3.2677087191429955e+01 4.9616863150306450e+01 1.1497362424047500e+01 0 0 0
1837 154 70 -8.4760000000000002e-01 2.2298121000322336e+01 4.7870213609596078e+01 1.9642521777717732e+01 0 0 0
6510 1712 71 4.2380000000000001e-01 1.8004500237409984e+00 2.1887058145503623e+01 1.8762331909557634e+01 1 0 0
1884 170 71 4.2380000000000001e-01 3.0405619994273277e+01 2.6552134820215173e+01 7.7523386481973020e+00 0 0 0
1885 170 70 -8.4760000000000002e-01 3.1090030348455411e+01 2.6255755415933791e+01 7.0876997890020093e+00 0 0 0
1802 143 71 4.2380000000000001e-01 3.0400534096013800e+01 2.9845020736805637e+01 7.3518365568437352e+00 0 0 0
1883 170 71 4.2380000000000001e-01 3.0908679463705095e+01 2.5309897439005319e+01 6.8222425516623915e+00 0 0 0
1803 143 71 4.2380000000000001e-01 2.9035983671097572e+01 3.0115126720945096e+01 8.2040960952900850e+00 0 0 0
1804 143 70 -8.4760000000000002e-01 3.0034227816966634e+01 3.0110107897955629e+01 8.2426517780095487e+00 0 0 0
3556 727 70 -8.4760000000000002e-01 3.1907416399027206e+01 2.7132723772542498e+01 1.0294101220874934e+01 0 0 1
1980 202 71 4.2380000000000001e-01 2.9621511586061146e+01 2.7370318117315289e+01 9.6307626590348168e+00 0 0 0
1981 202 70 -8.4760000000000002e-01 2.9230893374695384e+01 2.7136818594696489e+01 8.7414378308360909e+00 0 0 0
1979 202 71 4.2380000000000001e-01 2.8354047745873583e+01 2.7602424749825989e+01 8.6302811392103198e+00 0 0 0
1860 162 71 4.2380000000000001e-01 3.2580035254209065e+01 2.8593305748324472e+01 5.5099412361480624e+00 0 0 0
1861 162 70 -8.4760000000000002e-01 3.1663750071266389e+01 2.8719796230480682e+01 5.8873333688329152e+00 0 0 0
1859 162 71 4.2380000000000001e-01 3.1399098991159008e+01 2.7904010394987239e+01 6.3996396159744648e+00 0 0 0
2617 414 70 -8.4760000000000002e-01 3.9157355463839330e+01 2.3763421363536484e+01 2.4780660311528553e+01 0 0 0
106 8 20 3.1000000000000000e-02 4.9130208488618727e+01 3.2392815017489632e+01 6.4814106651571901e+00 0 0 0
1836 154 71 4.2380000000000001e-01 2.1966933247598654e+01 4.7533280584700655e+01 1.8762297940755516e+01 0 0 0
4126 917 70 -8.4760000000000002e-01 3.7558530222846095e+01 3.1327271064115556e+00 4.9231566907533502e+00 0 1 0
3358 661 70 -8.4760000000000002e-01 3.1171336110729303e+01 5.1907335956893172e+00 3.1757528651931327e-01 0 0 1
3357 661 71 4.2380000000000001e-01 3.1898106983339325e+01 5.8752999429083967e+00 2.8328120110926258e-01 0 0 1
3452 693 71 4.2380000000000001e-01 1.6041463890356894e+01 4.3631897928749630e+01 7.6503201630159712e+00 0 0 1
3453 693 71 4.2380000000000001e-01 1.5868465152597317e+01 4.4217477067639912e+01 9.1630891494546631e+00 0 0 1
3454 693 70 -8.4760000000000002e-01 1.6519821132735498e+01 4.3853239640361998e+01 8.4989582217151654e+00 0 0 1
2296 307 70 -8.4760000000000002e-01 1.4559626439080798e+01 4.3731390364151565e+01 6.6688194160093612e+00 0 0 0
2294 307 71 4.2380000000000001e-01 1.4011242395416209e+01 4.2914177154227453e+01 6.8404018788187342e+00 0 0 0
2295 307 71 4.2380000000000001e-01 1.4267646179717703e+01 4.4154527361371585e+01 5.8122531910278665e+00 0 0 0
2140 255 70 -8.4760000000000002e-01 1.7108013591063674e+01 3.8795931763694433e+01 6.6063906361887428e+00 0 0 0