LAMMPS data file via write_data, version 21 Feb 2017, timestep = 10000

10411 atoms
71 atom types
7399 bonds
254 bond types
5512 angles
155 angle types
3375 dihedrals
47 dihedral types
125 impropers
5 improper types

0.0000000000000000e+00 2.0000000000000000e+02 xlo xhi
0.0000000000000000e+00 2.0000000000000000e+02 ylo yhi
0.0000000000000000e+00 2.0000000000000000e+02 zlo zhi

Masses

1 15.9994
2 15.9994
3 15.9994
4 15.9994
5 15.9994
6 14.0067
7 14.0067
8 14.0067
9 14.0067
10 14.0067
11 14.0067
12 12.011
13 12.011
14 13.019
15 14.027
16 15.035
17 16.043
18 14.027
19 12.011
20 1.008
21 1.008
22 1
23 32.06
24 63.546
25 63.546
26 55.847
27 65.37
28 24.305
29 40.08
30 39.948
31 18.9984
32 35.453
33 79.904
34 12.011
35 15.9994
36 22.9898
37 35.453
38 12.011
39 35.453
40 1.008
41 32.06
42 12.011
43 15.9994
44 12.011
45 35.453
46 18.9984
47 12.011
48 13.019
49 15.9994
50 12.011
51 15.9994
52 14.0067
53 15.035
54 126.904
55 35.453
56 10.811
57 78.96
58 1.008
59 35.453
60 79.904
61 15.9994
62 14.0067
63 12.011
64 12.011
65 14.0067
66 14.0067
67 15.9994
68 28.08
69 30.9738
70 15.9994
71 1.008

Pair Coeffs # lj/cut/coul/long

1 0.305714 2.76007
2 0.412295 2.62585
3 0.203061 2.95484
4 0.252656 2.84916
5 0.155394 3.16565
6 0.152915 3.13647
7 0.0700622 3.5722
8 0.152915 3.13647
9 0.104651 3.34113
10 0.152915 3.13647
11 0.152915 3.13647
12 0.0663015 3.58118
13 0.00167194 6.63949
14 0.0226791 5.01918
15 0.098122 4.07038
16 0.207254 3.74792
17 0.302012 3.70995
18 0.11455 3.95474
19 0.120138 3.74119
20 0.0282937 2.37341
21 0 0
22 0 0
23 0.455513 3.30769
24 2.039 1.5184
25 2.039 1.5184
26 0 0
27 1.107 1.68112
28 0.0747249 1.93323
29 0.121156 2.81311
30 0.238148 3.40984
31 0.10897 2.94006
32 0.300087 3.46982
33 0.69792 3.6508
34 0.243126 3.60124
35 0.131455 3.17694
36 0.00509651 3.12117
37 0.162149 4.09571
38 0.101741 3.40006
39 0.299511 3.44
40 0.0197496 2.20219
41 0.310038 3.55995
42 0.207254 3.74792
43 0.409923 2.63004
44 0.0544087 3.7739
45 0.270582 3.44757
46 0.0828967 3.07717
47 0.0970049 3.3611
48 0.117014 3.91992
49 0.203061 2.95484
50 0.105027 3.74991
51 0.210013 2.95998
52 0.169966 3.25006
53 0.207254 3.74792
54 0.836845 3.84961
55 0.329921 3.26983
56 0.0663015 3.58118
57 0.455513 3.30769
58 0 0
59 0.329921 3.26983
60 0.580843 3.89995
61 0.119432 3.40025
62 0.1399 3.9019
63 0.0734574 3.52053
64 0.245018 2.81144
65 0.142655 4.06776
66 0.219779 3.64529
67 0.119497 3.1
68 0.584786 3.38557
69 0.584786 3.38557
70 0.1553 3.166
71 0 0

Bond Coeffs # harmonic

1 375.239 1
2 446.941 1
3 349.274 1.09
4 1109.29 1.12
5 600.242 1.23
6 500.418 1.25
7 499.732 1.32
8 375.003 1.33
9 448.144 1.33
10 498.877 1.33
11 450.617 1.34
12 502.116 1.34
13 450.906 1.36
14 500.679 1.38
15 399.904 1.39
16 498.726 1.39
17 400.057 1.4
18 399.792 1.43
19 450.132 1.43
20 300.222 1.435
21 449.843 1.47
22 299.976 1.48
23 399.968 1.48
24 450.226 1.48
25 450.108 1.5
26 299.844 1.52
27 400.034 1.53
28 299.851 1.61
29 299.727 1.63
30 205.976 1.78
31 449.816 1.78
32 449.828 1.83
33 300.045 1.87
34 59.9679 1.98
35 60.0382 2
36 500.307 2.04
37 63.0357 2.21
38 554.493 1
39 349.928 1.1
40 599.794 1.758
41 449.829 1.53
42 444.341 1.93799
43 599.679 1.76
44 501.026 1.265
45 448.656 1.35
46 555.129 1.63299
47 350.249 2.33839
48 600.161 2.90283
49 445.884 2.79388
50 443.815 2.91189
51 409.328 2.077
52 600.173 2.87407
53 88.4321 1.1
54 56.1663 1.84
55 513.862 1.01
56 310.707 1.41
57 442.161 1.02
58 239.006 1.46
59 513.862 1.29
60 442.161 0.972
61 812.62 1.22
62 466.061 1.22
63 239.006 1.54
64 179.254 1.56
65 227.055 1.54
66 106.358 1.76
67 131.453 1.69
68 203.155 1.75
69 203.155 1.51
70 143.403 1.57
71 179.254 0.971
72 191.205 1.5
73 262.906 1.45
74 549.713 1.52
75 83.652 1.03
76 191.205 1.74
77 191.205 1.72
78 227.055 1.64
79 203.155 1.67
80 191.205 1.66
81 215.105 1.65
82 513.862 1.31
83 155.354 1.01
84 35.8509 1.89
85 101.577 1.93
86 155.354 1.36
87 167.304 1.79
88 114.723 1.35
89 155.354 1.39
90 203.155 1.38
91 227.055 0.983
92 155.354 1.3
93 418.26 1.08
94 155.354 1.9
95 1314.53 1.16
96 143.403 1.8
97 155.354 1.42
98 478.011 0.984
99 119.503 1.08
100 119.503 1.91
101 418.26 1.03
102 525.813 1.28
103 131.453 1.22
104 143.403 1.11
105 1195.03 1.21
106 466.061 1.07
107 956.023 1.21
108 693.117 1.21
109 87.2371 1.85
110 394.359 1.11
111 109.943 2.09
112 131.453 1.82
113 99.1874 1.96
114 56.1663 1.86
115 167.304 1.21
116 167.304 1.28
117 143.403 1.71
118 131.453 1.6
119 454.111 1.21
120 41.826 1.61
121 131.453 1.94
122 155.354 1.59
123 143.403 2.1
124 119.503 2.12
125 57.3614 2.13
126 203.155 1.26
127 1195.03 1.14
128 191.205 1.23
129 788.719 1.3
130 239.006 1.31
131 59.7514 2.04
132 82.457 1.34
133 621.415 0.938
134 310.707 1.16
135 34.6558 2.07
136 60.9465 1.16
137 93.2122 2.16
138 43.021 2.23
139 23.9006 2.05
140 896.272 1.19
141 728.967 1.47
142 394.359 1.57
143 1195.03 1.18
144 54.9713 1.87
145 1063.58 1.17
146 215.105 1.13
147 59.7514 2.02
148 179.254 1.07
149 250.956 1.14
150 155.354 1.06
151 537.763 1.46
152 812.62 1.17
153 92.0172 2.15
154 239.006 1.04
155 60.9465 1.4
156 1314.53 1.11
157 466.061 1.56
158 752.868 1.49
159 501.912 1.54
160 35.8509 2.17
161 35.8509 2.27
162 669.216 1.45
163 764.818 1.25
164 848.47 1.27
165 561.663 1.16
166 1434.03 1.14
167 501.912 1.17
168 537.763 1.19
169 920.172 1.14
170 227.055 1.24
171 1434.03 1.13
172 89.6272 2.91
173 57.3614 2.24
174 418.26 0.743
175 239.006 1.2
176 111.138 2.33
177 96.7973 2.42
178 83.652 1.32
179 1159.18 1.2
180 1314.53 1.2
181 430.21 1.58
182 53.7763 1.47
183 1.55354 2.77
184 5.13862 2.25
185 100.382 2.18
186 50.1912 1.52
187 93.2122 2.19
188 27.4857 1.48
189 1912.05 1.07
190 8.60421 2.8
191 87.2371 2.52
192 0.669216 2.79
193 812.62 1.16
194 1.79254 2.68
195 406.31 1.59
196 119.503 1.18
197 34.6558 2.54
198 1792.54 1.1
199 824.57 1.29
200 33.4608 2.44
201 107.553 2.41
202 112.333 2.36
203 20.3155 1.43
204 2.27055 2.57
205 19.1205 2.47
206 0.764818 2.71
207 1553.54 1.12
208 3.70459 2.75
209 501.912 1.14
210 0.717017 2.86
211 10.5163 2.64
212 1912.05 0.985
213 1.91205 2.61
214 7.40918 2.62
215 59.7514 2.46
216 3.58509 2.66
217 1.31453 2.72
218 58.5564 1.63
219 573.614 1.12
220 37.0459 2.32
221 16.7304 1.44
222 1553.54 1.16
223 7.17017 2.69
224 10.0382 2.49
225 3.22658 2.92
226 0.82457 2.29
227 9.79924 2.4
228 1.03967 2.37
229 1.55354 2.94
230 5.85564 2.95
231 1.67304 2.96
232 0.0131453 2.56
233 5.25813 2.59
234 15.5354 2.38
235 836.52 1.12
236 1.91205 2.5
237 2.39006 2.3
238 585.564 1.04
239 3.34608 2.99
240 0.967973 2.34
241 1.07553 2.98
242 2.27055 2.74
243 1063.58 1.16
244 812.62 1.5
245 1.31453 2.84
246 0.322658 2.82
247 908.222 1.23
248 466.061 1.05
249 3.34608 2.88
250 1434.03 1.18
251 1673.04 1.15
252 6.33365 2.9
253 0 0
254 100 1

Angle Coeffs # harmonic

1 45.3116 90
2 50.0917 90
3 47.7712 96
4 54.9551 100
5 47.5559 103
6 55.0345 104
7 50.1709 108
8 30.1731 109.5
9 33.8897 109.5
10 40.2609 109.5
11 45.0394 109.5
12 47.694 109.5
13 55.1272 109.5
14 47.635 109.6
15 55.1139 111
16 55.0997 113
17 4.824 115
18 45.0699 115
19 59.7937 115
20 44.8085 116
21 59.7719 116
22 60.1639 117
23 34.88 120
24 39.8095 120
25 45.1871 120
26 47.4278 120
27 50.1166 120
28 59.9756 120
29 69.8346 120
30 60.0726 121
31 60.091 122
32 34.8146 123
33 59.8929 124
34 30.0075 125
35 60.0779 125
36 44.9139 126
37 49.998 126
38 60.166 126
39 50.1189 132
40 47.5187 155
41 28.4971 180
42 45.9951 109.5
43 52.4767 107.57
44 65.472 111.3
45 55.0189 97.4
46 55.0247 106.75
47 47.5019 108.53
48 65.5335 109.5
49 54.9566 107.6
50 47.4817 109.5
51 54.9931 110.3
52 55.0234 111.4
53 60.044 117.2
54 60.0023 121.4
55 48.24 180
56 180.46 109
57 192.229 106
58 145.153 126
59 145.153 96.2
60 156.922 114
61 203.998 119
62 239.306 130
63 298.152 107
64 156.922 134
65 239.306 101
66 286.382 113
67 368.766 134
68 356.997 119
69 333.459 126
70 251.075 89.6
71 380.536 114
72 286.382 135
73 145.153 88.3
74 133.384 60
75 380.536 179
76 251.075 180
77 470.766 178
78 47.0766 59.9
79 47.0766 60.3
80 251.075 124
81 706.149 118
82 117.691 144
83 627.688 123
84 470.766 118
85 333.459 94.8
86 90.2301 175
87 156.922 82.8
88 117.691 77.6
89 239.306 145
90 251.075 50.8
91 380.536 104
92 262.844 84.4
93 215.768 63.3
94 215.768 61
95 298.152 173
96 192.229 173
97 82.384 50.9
98 431.535 127
99 62.7688 67.8
100 156.922 180
101 588.457 118
102 30.1731 110
103 227.537 94.8
104 431.535 173
105 34.5228 78.5
106 70.6149 138
107 70.6149 168
108 156.922 167
109 18.046 149
110 333.459 144
111 356.997 148
112 321.69 144
113 356.997 148
114 321.69 147
115 333.459 144
116 5099.96 60.8
117 1451.53 68
118 298.152 161
119 156.922 155
120 309.921 154
121 215.768 75.3
122 309.921 64.7
123 549.227 173
124 3334.59 45.8
125 863.071 123
126 549.227 123
127 470.766 166
128 380.536 166
129 203.998 139
130 66.6918 161
131 7.45379 44.9
132 25.1075 84.8
133 192.229 161
134 333.459 70.4
135 627.688 173
136 1.92229 51.6
137 21.5768 73.3
138 7.45379 174
139 470.766 132
140 145.153 69.9
141 15.6922 144
142 1922.29 97.9
143 392.305 155
144 588.457 104
145 117.691 149
146 509.996 157
147 286.382 166
148 333.459 89.8
149 392.305 79.1
150 6669.18 45.2
151 470.766 101
152 745.379 125
153 168.691 49.6
154 509.996 112
155 100 109.47

Dihedral Coeffs # harmonic

1 0.638145 -1 1
2 0.81501 -1 1
3 1.18786 -1 1
4 1.40057 -1 1
5 2.2347 -1 1
6 2.2586 -1 1
7 0.666826 1 1
8 1.27868 1 1
9 0.365679 -1 2
10 1.40057 -1 2
11 1.69933 -1 2
12 3.9914 -1 2
13 5.73614 -1 2
14 8.00669 -1 2
15 9.99044 -1 2
16 0 1 2
17 0.0999044 1 2
18 0.499522 1 2
19 0.750478 1 2
20 1.21654 1 2
21 3.9914 1 2
22 0.250956 1 3
23 0.301147 1 3
24 0.310707 1 3
25 0.604685 1 3
26 0.700287 1 3
27 0.762428 1 3
28 0.872371 1 3
29 0.901052 1 3
30 0.932122 1 3
31 0.999044 1 3
32 1.12094 1 3
33 1.30019 1 3
34 1.41491 1 3
35 1.83795 1 3
36 2.06023 1 3
37 2.27055 1 3
38 0 1 4
39 0.239006 -1 6
40 0.239006 1 6
41 0.901052 1 6
42 0.83652 -1 2
43 0.669216 1 3
44 0.167304 -1 6
45 0.0956023 1 6
46 0.239006 -1 3
47 0 1 1

Improper Coeffs # harmonic

1 20.0075 0
2 40.0151 35.2644
3 80.0302 0
4 20.0075 180
5 40.0151 -35.2644

Atoms # full

1760 129 71 4.2380000000000001e-01 3.7485511546810116e+01 9.9913549403040051e+01 1.2237152596878174e+01 0 0 0
2205 277 71 4.2380000000000001e-01 8.0437487041761131e+01 8.6501458132625366e+00 3.0146596034759838e+00 0 0 0
2204 277 71 4.2380000000000001e-01 8.1257158645236146e+01 7.2961082246162778e+00 3.3890143456357360e+00 0 0 0
2206 277 70 -8.4760000000000002e-01 8.1065764582954785e+01 7.9583472385637064e+00 2.6700876827531457e+00 0 0 0
2021 216 71 4.2380000000000001e-01 3.1798395775651102e+01 1.5075911620260054e+01 3.1088956994651968e+00 0 0 0
2023 216 70 -8.4760000000000002e-01 3.2003356015987343e+01 1.4379262696114603e+01 2.4271924490316783e+00 0 0 0
2022 216 71 4.2380000000000001e-01 3.2825654801810558e+01 1.4635850376219667e+01 1.9271572357358684e+00 0 0 0
2745 457 71 4.2380000000000001e-01 4.8623796340955643e+01 6.4010614620385780e+01 4.9749618925038817e+01 0 0 0
180 13 58 4.1699999999999998e-01 9.7799834662318091e+01 9.9782626989922790e+01 2.1934490330371144e+01 0 0 0
6202 1609 70 -8.4760000000000002e-01 9.3528928582944437e-01 2.2728094841712494e+01 2.9390926179731146e+01 1 0 0
1982 203 71 4.2380000000000001e-01 1.2462289632288256e+01 1.9713687136391464e+01 3.1332163155836508e+00 0 0 0
1983 203 71 4.2380000000000001e-01 1.3913219810388059e+01 1.9472906946600375e+01 2.4387760226345132e+00 0 0 0
1984 203 70 -8.4760000000000002e-01 1.2927894039740895e+01 1.9421461435061715e+01 2.3026355425594827e+00 0 0 0
1837 154 70 -8.4760000000000002e-01 5.6689582234067984e+01 9.3133656992511177e+01 4.3940773665004457e+01 0 0 0
1778 135 71 4.2380000000000001e-01 6.1321305892450098e+01 2.5695595898944042e+01 3.6202174653774413e+00 0 0 0
1780 135 70 -8.4760000000000002e-01 6.1733200443188416e+01 2.5098889200170660e+01 2.9373325995334354e+00 0 0 0
1779 135 71 4.2380000000000001e-01 6.2142494557450625e+01 2.5651685789671706e+01 2.2169563062319599e+00 0 0 0
2072 233 71 4.2380000000000001e-01 7.7530065759236621e+01 2.8310704159585924e+01 6.4760218647266568e+00 0 0 0
2246 291 71 4.2380000000000001e-01 7.9586862821923647e+00 3.2036385087077434e+01 4.0825015843654322e+00 0 0 0
2247 291 71 4.2380000000000001e-01 8.3553434482193136e+00 3.2781473044560641e+01 5.4727993331389113e+00 0 0 0
2248 291 70 -8.4760000000000002e-01 8.2758906081444330e+00 3.1899597589228552e+01 5.0166955370934891e+00 0 0 0
1870 165 70 -8.4760000000000002e-01 3.0072269371297054e+01 3.4030998864579473e+01 1.0102499542219401e+00 0 0 0
1869 165 71 4.2380000000000001e-01 3.0035345138724463e+01 3.3846717776863073e+01 3.2126838863562650e-02 0 0 0
1868 165 71 4.2380000000000001e-01 2.9570741772549614e+01 3.4868142171801139e+01 1.2095208774207102e+00 0 0 0
2231 286 71 4.2380000000000001e-01 8.7776973749381355e+01 3.3833386547964857e+01 2.9406941361606576e+00 0 0 0
2233 286 70 -8.4760000000000002e-01 8.7958351768346787e+01 3.3042752502864829e+01 2.3627256032419153e+00 0 0 0
2232 286 71 4.2380000000000001e-01 8.8545337461769577e+01 3.3313198628725210e+01 1.6048638476295871e+00 0 0 0
2198 275 71 4.2380000000000001e-01 6.6333492097400637e+01 9.8973071395381510e+01 4.8892213628097608e+01 0 0 0
1907 178 71 4.2380000000000001e-01 9.9181755140692758e+01 5.4965937127044803e+01 3.2293719053108035e+01 0 0 0
6241 1622 70 -8.4760000000000002e-01 6.1182330675536009e-02 5.7471206076966020e+01 6.3559364664676332e+00 1 0 0
2108 245 71 4.2380000000000001e-01 4.7468985151809193e+01 3.7616428672408411e+01 6.6512690652946516e-01 0 0 0
2150 259 71 4.2380000000000001e-01 8.7675767963483167e+01 3.6078620228885612e+01 5.0074574429182501e+00 0 0 0
2152 259 70 -8.4760000000000002e-01 8.7401492953753362e+01 3.5911697253197438e+01 4.0646119165019643e+00 0 0 0
2151 259 71 4.2380000000000001e-01 8.6901454626049272e+01 3.6700997684622337e+01 3.7196275006551240e+00 0 0 0
2177 268 71 4.2380000000000001e-01 4.2292832842178427e+01 4.5996252650066509e+01 3.6840960674938854e+00 0 0 0
2178 268 71 4.2380000000000001e-01 4.3165327806551495e+01 4.6203690924342681e+01 2.3272089308839079e+00 0 0 0
2179 268 70 -8.4760000000000002e-01 4.2276724600485075e+01 4.6349342689372094e+01 2.7529055961233921e+00 0 0 0
1898 175 71 4.2380000000000001e-01 5.6587927271538675e+01 4.8039930764384678e+01 2.1936652227418305e+00 0 0 0
1900 175 70 -8.4760000000000002e-01 5.6547185665208943e+01 4.7049913291595821e+01 2.0924067694732416e+00 0 0 0
1899 175 71 4.2380000000000001e-01 5.7457007238703717e+01 4.6699265482669453e+01 1.8891370242456926e+00 0 0 0
3673 766 70 -8.4760000000000002e-01 5.9960181501446861e+01 4.6450733822425619e+01 7.2878054955053939e-01 0 0 1
1928 185 71 4.2380000000000001e-01 6.8885650971219363e+01 8.7338182519898083e+01 4.8910564492830673e+01 0 0 0
2161 262 70 -8.4760000000000002e-01 9.1432850207924773e+01 4.5227262684388855e+01 7.3683437026808862e-01 0 0 0
2159 262 71 4.2380000000000001e-01 9.1977243214275106e+01 4.5495147519706691e+01 1.5267215235510641e+00 0 0 0
1884 170 71 4.2380000000000001e-01 3.5120650283179266e+01 4.9269784089415353e+01 5.2483433716352144e+00 0 0 0
1885 170 70 -8.4760000000000002e-01 3.4884093063916438e+01 4.9664697309046261e+01 4.3650925713230526e+00 0 0 0
1883 170 71 4.2380000000000001e-01 3.5610827881986054e+01 4.9474551394516830e+01 3.7110675101262909e+00 0 0 0
2728 451 70 -8.4760000000000002e-01 5.7262117506925428e+01 7.9233312773562957e+01 4.9337296812737442e+01 0 0 0
2131 252 70 -8.4760000000000002e-01 2.7232725811118847e+01 6.1835347584582856e+01 1.3350463086135469e+00 0 0 0
2130 252 71 4.2380000000000001e-01 2.8228687031126988e+01 6.1826477969241331e+01 1.3405529808651835e+00 0 0 0
2129 252 71 4.2380000000000001e-01 2.6892648177019229e+01 6.1461597969135738e+01 2.1933622021015573e+00 0 0 0
1836 154 71 4.2380000000000001e-01 5.7308717139188694e+01 9.3140304595552479e+01 4.3160597066951325e+01 0 0 0
2202 276 71 4.2380000000000001e-01 9.4504615762011781e+01 6.7462050247128062e+01 1.4876462145756388e+00 0 0 0
2203 276 70 -8.4760000000000002e-01 9.5089538482043253e+01 6.8160942762021321e+01 1.0858223601010968e+00 0 0 0
2201 276 71 4.2380000000000001e-01 9.5116254921483005e+01 6.8956169107654858e+01 1.6849459172091779e+00 0 0 0
2196 274 71 4.2380000000000001e-01 4.1480687090852957e+00 7.5811089860065067e+01 3.9044699813990538e+00 0 0 0
2197 274 70 -8.4760000000000002e-01 4.6764419263331307e+00 7.6570530843250779e+01 4.2734129088093358e+00 0 0 0
2195 274 71 4.2380000000000001e-01 5.2348864722787676e+00 7.6968367100561835e+01 3.5509769255445125e+00 0 0 0
1857 161 71 4.2380000000000001e-01 5.2448788831168244e+01 7.7873750321217742e+01 4.1703128474567110e+00 0 0 0
1858 161 70 -8.4760000000000002e-01 5.2340561763752035e+01 7.7660978737387524e+01 3.2033263427578138e+00 0 0 0
1856 161 71 4.2380000000000001e-01 5.1491628828950006e+01 7.8060099671241574e+01 2.8685680752804745e+00 0 0 0
2025 217 71 4.2380000000000001e-01 7.1106314604326499e+01 8.7999886783843138e+01 5.6396248139460479e+00 0 0 0
2026 217 70 -8.4760000000000002e-01 7.1580387262757611e+01 8.8854110511204325e+01 5.8335440865513108e+00 0 0 0
2024 217 71 4.2380000000000001e-01 7.1279934536365502e+01 8.9553716392312865e+01 5.1914167489617045e+00 0 0 0
2142 256 71 4.2380000000000001e-01 5.5562749183186753e+01 3.1585257490453191e+00 9.3662377777410644e+00 0 0 0
2143 256 70 -8.4760000000000002e-01 5.5409920595154162e+01 3.2309113005003329e+00 1.0347793432956836e+01 0 0 0
2141 256 71 4.2380000000000001e-01 5.5623502077272768e+01 2.3603996984755327e+00 1.0782120787464471e+01 0 0 0
2244 290 71 4.2380000000000001e-01 7.5565751134346115e+01 4.4304948323654267e+00 1.0690814878560595e+01 0 0 0
2245 290 70 -8.4760000000000002e-01 7.5409999431538665e+01 3.5698060542708139e+00 1.1167264224889626e+01 0 0 0
2243 290 71 4.2380000000000001e-01 7.6277860478662333e+01 3.2141272952998707e+00 1.1502462030038982e+01 0 0 0
163 12 67 -6.3100000000000001e-01 5.7659021045860037e+01 9.9886441226408692e+01 1.9986030386549793e+01 0 0 0
2127 251 71 4.2380000000000001e-01 4.0754706860105841e+01 1.1009785828306747e+01 1.4699425156043223e+01 0 0 0
2128 251 70 -8.4760000000000002e-01 4.0899241755975581e+01 1.1459798491762612e+01 1.3822700563095042e+01 0 0 0
2126 251 71 4.2380000000000001e-01 4.1421457726429480e+01 1.0859527986025906e+01 1.3223523172482773e+01 0 0 0
2213 280 71 4.2380000000000001e-01 6.7486310750908800e+01 1.5687935667300993e+01 7.6495906395746580e+00 0 0 0
2214 280 71 4.2380000000000001e-01 6.8496471286440354e+01 1.6679536953642330e+01 6.8485142491044915e+00 0 0 0
2215 280 70 -8.4760000000000002e-01 6.8439970749815217e+01 1.5872182430443596e+01 7.4290606370068648e+00 0 0 0
2218 281 70 -8.4760000000000002e-01 9.2523538016978392e+01 1.4698651446833219e+01 9.7353477272686444e+00 0 0 0
2217 281 71 4.2380000000000001e-01 9.1603559376162750e+01 1.4725641884465402e+01 9.3546134866291091e+00 0 0 0
2216 281 71 4.2380000000000001e-01 9.2896250769539662e+01 1.5621701994891952e+01 9.7686739193924659e+00 0 0 0
2180 269 71 4.2380000000000001e-01 1.0759005219623681e+01 1.8544123360355030e+01 1.1393423254776961e+01 0 0 0
2182 269 70 -8.4760000000000002e-01 9.8607459009804170e+00 1.8211154836536565e+01 1.1120824773772123e+01 0 0 0
2181 269 71 4.2380000000000001e-01 9.4675275321594512e+00 1.8830448743045594e+01 1.0447101846374455e+01 0 0 0
2144 257 71 4.2380000000000001e-01 7.9259345068407550e+00 2.0132979390756596e+01 8.8505220595401717e+00 0 0 0
2146 257 70 -8.4760000000000002e-01 8.7717954913876834e+00 2.0216058694048293e+01 9.3698146354191376e+00 0 0 0
2145 257 71 4.2380000000000001e-01 9.0180191803838134e+00 2.1177684071660956e+01 9.4516576522183637e+00 0 0 0
1947 191 71 4.2380000000000001e-01 2.3581869680752185e+01 2.5450665177337640e+01 8.1967036831280282e+00 0 0 0
1878 168 71 4.2380000000000001e-01 1.9603494433962705e+01 2.7019991709085865e+01 9.3851772017636179e+00 0 0 0
1879 168 70 -8.4760000000000002e-01 1.8728079997180622e+01 2.7064723241456161e+01 8.9122116629803738e+00 0 0 0
1877 168 71 4.2380000000000001e-01 1.8870700538069965e+01 2.6927191542556294e+01 7.9361009314393671e+00 0 0 0
1948 191 70 -8.4760000000000002e-01 2.2644287381404656e+01 2.5208661139557915e+01 7.9634201149630117e+00 0 0 0
1946 191 71 4.2380000000000001e-01 2.2488453188058301e+01 2.4246858253006625e+01 8.1700566485514443e+00 0 0 0
2074 233 70 -8.4760000000000002e-01 7.7049788852213553e+01 2.9152491921379831e+01 6.7057504044186604e+00 0 0 0
2073 233 71 4.2380000000000001e-01 7.6406923225838227e+01 2.9376899358723207e+01 5.9788303030563954e+00 0 0 0
1958 195 71 4.2380000000000001e-01 5.0189044127060733e+01 3.3144280705767983e+01 1.0044857171874709e+01 0 0 0
1960 195 70 -8.4760000000000002e-01 4.9624900174764782e+01 3.3153383947492607e+01 1.0865653419359738e+01 0 0 0
1959 195 71 4.2380000000000001e-01 5.0080527269585531e+01 3.3682673048090848e+01 1.1575797595355597e+01 0 0 0
1809 145 71 4.2380000000000001e-01 5.2078838550846775e+01 3.6090774600080685e+01 1.3067669084094073e+01 0 0 0
1810 145 70 -8.4760000000000002e-01 5.2487595074211377e+01 3.5325545725914182e+01 1.2578393475576222e+01 0 0 0
2009 212 71 4.2380000000000001e-01 1.9466071161475369e+01 3.7681778418121787e+01 1.0215444093751763e+01 0 0 0
2010 212 71 4.2380000000000001e-01 1.8055604353735344e+01 3.7412725803378187e+01 9.4514971867280853e+00 0 0 0
2011 212 70 -8.4760000000000002e-01 1.9031687687009285e+01 3.7214462643326335e+01 9.4506077001012496e+00 0 0 0
2225 284 71 4.2380000000000001e-01 6.6029106170644638e+01 3.7012565005550542e+01 8.2943872577887863e+00 0 0 0
2226 284 71 4.2380000000000001e-01 6.6162870913758596e+01 3.8592542256512736e+01 7.9321722913247852e+00 0 0 0
2227 284 70 -8.4760000000000002e-01 6.5587375230480674e+01 3.7784240247363421e+01 7.8455678698939391e+00 0 0 0
1802 143 71 4.2380000000000001e-01 2.8635876098041280e+01 4.6003214073575997e+01 1.1167632465336800e+01 0 0 0
1803 143 71 4.2380000000000001e-01 2.7686415523957074e+01 4.7013313484662575e+01 1.0316959437581247e+01 0 0 0
1804 143 70 -8.4760000000000002e-01 2.8224377697951525e+01 4.6910056225758915e+01 1.1148814223744031e+01 0 0 0
2168 265 71 4.2380000000000001e-01 5.3235551240366441e+01 4.2181220877017651e+01 1.0718225026162239e+01 0 0 0
2170 265 70 -8.4760000000000002e-01 5.3534927614496354e+01 4.1966834695300683e+01 1.1643676319855764e+01 0 0 0
2169 265 71 4.2380000000000001e-01 5.4422812292212363e+01 4.2386066417090419e+01 1.1810868747358709e+01 0 0 0
1932 186 71 4.2380000000000001e-01 7.8367412440713196e+01 4.4314870005419181e+01 8.1979177061751525e+00 0 0 0
1931 186 71 4.2380000000000001e-01 7.8947173979394563e+01 4.4952174071299979e+01 6.8183739816539912e+00 0 0 0
1933 186 70 -8.4760000000000002e-01 7.9056117628733375e+01 4.4919518451339293e+01 7.8078751878326944e+00 0 0 0
2116 247 70 -8.4760000000000002e-01 1.6610400182800021e+01 5.0320246350905066e+01 1.1370118458738926e+01 0 0 0
2114 247 71 4.2380000000000001e-01 1.7432520263297846e+01 5.0541318136759358e+01 1.0853114025467098e+01 0 0 0
2115 247 71 4.2380000000000001e-01 1.6651097739196324e+01 5.0760460757353783e+01 1.2262644497877611e+01 0 0 0
2294 307 71 4.2380000000000001e-01 4.8846060149510727e+01 5.4306831672383716e+01 9.7540750090444330e+00 0 0 0
2123 250 71 4.2380000000000001e-01 9.0787431922345647e+01 4.8823140934955291e+01 1.3985625222345075e+01 0 0 0
2295 307 71 4.2380000000000001e-01 4.7283123608831531e+01 5.4464846650224473e+01 1.0175597770682760e+01 0 0 0
2296 307 70 -8.4760000000000002e-01 4.7920660110743221e+01 5.3980574452948382e+01 9.5830816165117483e+00 0 0 0
1990 205 70 -8.4760000000000002e-01 9.8349684076331826e+01 6.3876722026746847e+01 9.6663723890781146e+00 0 0 0
1988 205 71 4.2380000000000001e-01 9.7359766153771147e+01 6.3865131675924289e+01 9.7758069157922787e+00 0 0 0
1989 205 71 4.2380000000000001e-01 9.8731187213172319e+01 6.3021329432236669e+01 1.0005203631927813e+01 0 0 0
2057 228 71 4.2380000000000001e-01 4.1766823698130395e+01 7.9128757986125635e+01 1.2298142516866315e+01 0 0 0
2059 228 70 -8.4760000000000002e-01 4.2684626584446768e+01 7.9005418882966609e+01 1.1931436813627776e+01 0 0 0
2058 228 71 4.2380000000000001e-01 4.3350504978683560e+01 7.9092530030058896e+01 1.2667008263195315e+01 0 0 0
2171 266 71 4.2380000000000001e-01 1.2992724036470381e+01 5.6624386858718836e+01 4.9343277259454197e+01 0 0 0
6240 1622 71 4.2380000000000001e-01 8.7782537320071663e-01 5.7600754297231916e+01 5.8006355160484553e+00 1 0 0
1903 176 70 -8.4760000000000002e-01 5.9971210633938012e+00 6.3574249468897559e-01 1.5455848178822148e+01 0 0 0
3973 866 70 -8.4760000000000002e-01 3.5847533927616880e+01 3.1957572351875991e+00 1.4540968092177280e+01 0 1 0
3971 866 71 4.2380000000000001e-01 3.5065099742204012e+01 3.3901152008543489e+00 1.3956101036082183e+01 0 1 0
3972 866 71 4.2380000000000001e-01 3.5972534453184132e+01 3.9430759207669324e+00 1.5187448871204756e+01 0 1 0
2070 232 71 4.2380000000000001e-01 9.1833854803640619e+01 1.2244485878913884e+00 1.5163473394343383e+01 0 0 0
2069 232 71 4.2380000000000001e-01 9.2511261402480315e+01 2.6447788738448299e+00 1.4752130495241206e+01 0 0 0
2071 232 70 -8.4760000000000002e-01 9.2659019486915597e+01 1.7791623994405081e+00 1.5222155402029768e+01 0 0 0
1949 192 71 4.2380000000000001e-01 2.6331843755934699e+01 9.6403511211949837e+00 1.6527013080862623e+01 0 0 0
1950 192 71 4.2380000000000001e-01 2.7365246924369234e+01 8.5874484459959675e+00 1.5842254254693463e+01 0 0 0
1951 192 70 -8.4760000000000002e-01 2.6666478924207894e+01 9.2742778076245571e+00 1.5663266950033547e+01 0 0 0
2193 273 71 4.2380000000000001e-01 8.1430015924793679e+01 6.7424775735957319e+00 1.4299627871471873e+01 0 0 0
2194 273 70 -8.4760000000000002e-01 8.0924365281653948e+01 7.5899850140648653e+00 1.4434150401443468e+01 0 0 0
2192 273 71 4.2380000000000001e-01 8.1510383317175666e+01 8.2584898609089805e+00 1.4883296125766005e+01 0 0 0
2099 242 71 4.2380000000000001e-01 8.3084423714539952e+01 1.1662078595197380e+01 1.6188079872724774e+01 0 0 0
2100 242 71 4.2380000000000001e-01 8.4106439735133833e+01 1.0497150020074692e+01 1.6681886991456103e+01 0 0 0
2101 242 70 -8.4760000000000002e-01 8.3387518617954186e+01 1.0726270911741581e+01 1.6031730248833270e+01 0 0 0
1766 131 71 4.2380000000000001e-01 1.7521083527463009e+01 1.6569398755337971e+01 1.2704097153432144e+01 0 0 0
1767 131 71 4.2380000000000001e-01 1.8043878494861048e+01 1.7905081191181431e+01 1.1937247328082771e+01 0 0 0
1768 131 70 -8.4760000000000002e-01 1.7457433827341507e+01 1.7562642861396611e+01 1.2665853111416126e+01 0 0 0
2086 237 70 -8.4760000000000002e-01 4.7218789978599091e+01 1.6647933641900771e+01 1.5910279827804864e+01 0 0 0
2085 237 71 4.2380000000000001e-01 4.7538511141334546e+01 1.5713772603468836e+01 1.5779248237209556e+01 0 0 0
1961 196 71 4.2380000000000001e-01 9.2525138893108817e+01 1.0805978169805185e+01 1.8086139038427454e+01 0 0 0
1963 196 70 -8.4760000000000002e-01 9.1771118577550638e+01 1.0643492950104202e+01 1.7455980596139657e+01 0 0 0
1962 196 71 4.2380000000000001e-01 9.1801063630939964e+01 1.1316104762450111e+01 1.6721988505612362e+01 0 0 0
10 1 20 3.2000000000000001e-02 1.9464369080166492e+01 2.0129772387984730e+01 1.7942563984895870e+01 0 0 0
2084 237 71 4.2380000000000001e-01 4.6385916025497451e+01 1.6790797054400393e+01 1.5383061875711210e+01 0 0 0
2212 279 70 -8.4760000000000002e-01 1.7304611221638943e+01 2.2278234460558917e+01 1.6961003489736033e+01 0 0 0
2210 279 71 4.2380000000000001e-01 1.7626276158250569e+01 2.2083085522244726e+01 1.6038779914383085e+01 0 0 0
2211 279 71 4.2380000000000001e-01 1.6960798990348028e+01 2.3212128978292515e+01 1.7002014994970299e+01 0 0 0
2249 292 71 4.2380000000000001e-01 6.7040749954396034e+01 2.4461995962280806e+01 1.6502600924266574e+01 0 0 0
2251 292 70 -8.4760000000000002e-01 6.6501584434308853e+01 2.5282276753971168e+01 1.6671383950960880e+01 0 0 0
2250 292 71 4.2380000000000001e-01 6.6092663768452312e+01 2.5230040178003506e+01 1.7578082894699946e+01 0 0 0
2268 298 71 4.2380000000000001e-01 8.7496624232823255e+00 3.2105333387293975e+01 1.4810431182327285e+01 0 0 0
2269 298 70 -8.4760000000000002e-01 7.9854580904267376e+00 3.1661646080596519e+01 1.4350886769353268e+01 0 0 0
2267 298 71 4.2380000000000001e-01 8.2017114509446536e+00 3.1543446750320030e+01 1.3385842134076803e+01 0 0 0
2284 303 70 -8.4760000000000002e-01 1.8717608332982646e+01 3.3300883769449776e+01 1.6857844176320135e+01 0 0 0
2282 303 71 4.2380000000000001e-01 1.9550196034720468e+01 3.2926970760574221e+01 1.6459052844932263e+01 0 0 0
2283 303 71 4.2380000000000001e-01 1.7988437528809325e+01 3.3285020796738031e+01 1.6179533001619493e+01 0 0 0
1817 148 71 4.2380000000000001e-01 2.8788860270425381e+01 2.9026323517891672e+01 1.5946510768773834e+01 0 0 0
1819 148 70 -8.4760000000000002e-01 2.8732775802174547e+01 3.0019781849254983e+01 1.5902433314093519e+01 0 0 0
1818 148 71 4.2380000000000001e-01 2.8343113447732151e+01 3.0368239467627557e+01 1.6750247143532317e+01 0 0 0
1808 145 71 4.2380000000000001e-01 5.3477350201971554e+01 3.5353034542109562e+01 1.2686453173393073e+01 0 0 0
2040 222 71 4.2380000000000001e-01 7.0087872404825930e+01 2.9106173325494815e+01 1.6867016279481742e+01 0 0 0
2039 222 71 4.2380000000000001e-01 6.9776902973268733e+01 2.8044506128522713e+01 1.5674715320175297e+01 0 0 0
2041 222 70 -8.4760000000000002e-01 7.0493617686843237e+01 2.8548452712344520e+01 1.6148430008244631e+01 0 0 0
2112 246 71 4.2380000000000001e-01 1.5517156540943164e+01 3.9583550129632393e+01 1.4559266600636732e+01 0 0 0
2111 246 71 4.2380000000000001e-01 1.6725193631903039e+01 3.9105936736590571e+01 1.5538017148857294e+01 0 0 0
2113 246 70 -8.4760000000000002e-01 1.6247430660715594e+01 3.8917925034500797e+01 1.4684529077146793e+01 0 0 0
1861 162 70 -8.4760000000000002e-01 7.4198787329620160e+01 4.0701286333483928e+01 1.2677046375588080e+01 0 0 0
1860 162 71 4.2380000000000001e-01 7.3731742655772877e+01 4.0097331625910840e+01 1.3316699194786263e+01 0 0 0
1859 162 71 4.2380000000000001e-01 7.5027239594050400e+01 4.0258051912657102e+01 1.2346504639900747e+01 0 0 0
2241 289 71 4.2380000000000001e-01 1.9859436776871002e+00 4.1549079206873728e+01 1.6576546939029793e+01 0 0 0