ITEM: TIMESTEP
0
ITEM: NUMBER OF ATOMS
10411
ITEM: BOX BOUNDS pp pp pp
6.4478307810520796e+00 5.3552169218920866e+01
6.4478307810520796e+00 5.3552169218920866e+01
6.4478307810520796e+00 5.3552169218920866e+01
ITEM: ATOMS id mol type mass q xu yu zu 
4351 992 70 15.9994 -0.8476 200.77 -174.256 -321.432 
4350 992 71 1.008 0.4238 200.274 -174.824 -320.775 
4349 992 71 1.008 0.4238 200.12 -173.691 -321.941 
7303 1976 70 15.9994 -0.8476 296.775 -270.411 -176.528 
7302 1976 71 1.008 0.4238 296.871 -270.862 -177.415 
7301 1976 71 1.008 0.4238 297.15 -269.486 -176.582 
8380 2335 70 15.9994 -0.8476 384.51 -175.025 -274.853 
10223 2950 71 1.008 0.4238 248.556 -226.381 -272.087 
6131 1586 71 1.008 0.4238 344.104 -171.077 -314.394 
9142 2589 70 15.9994 -0.8476 342.218 -132.998 -127.876 
8626 2417 70 15.9994 -0.8476 344.799 -271.731 -225.743 
8624 2417 71 1.008 0.4238 344.736 -272.667 -225.395 
6133 1586 70 15.9994 -0.8476 345.082 -170.887 -314.302 
1979 202 71 1.008 0.4238 343.37 -268.408 -313.877 
1981 202 70 15.9994 -0.8476 342.615 -267.762 -313.984 
1980 202 71 1.008 0.4238 341.763 -268.265 -314.129 
190 14 20 1.008 0.031 387.017 -178.418 -314.813 
184 14 12 12.011 0.166 386.945 -178.422 -313.786 
189 14 67 15.9994 -0.611 385.718 -179.053 -313.287 
593 43 20 1.008 0.032 342.152 -219.837 -223.193 
594 43 20 1.008 0.032 342.316 -219.585 -224.936 
7657 2094 70 15.9994 -0.8476 342.068 -365.565 -269.037 
7655 2094 71 1.008 0.4238 342.752 -365.008 -269.508 
9141 2589 71 1.008 0.4238 341.837 -133.259 -126.989 
2153 260 71 1.008 0.4238 294.387 -218.065 -267.495 
4715 1114 71 1.008 0.4238 243.632 -268.385 -267.014 
2154 260 71 1.008 0.4238 295.545 -218.912 -266.714 
2155 260 70 15.9994 -0.8476 295.173 -217.999 -266.88 
7656 2094 71 1.008 0.4238 342.244 -366.533 -269.219 
595 43 67 15.9994 -0.611 344.637 -220.514 -224.099 
194 14 58 1.008 0.417 388.59 -176.69 -314.628 
191 14 67 15.9994 -0.631 388.393 -176.256 -313.734 
9901 2842 70 15.9994 -0.8476 344.234 -85.6591 -177.044 
9899 2842 71 1.008 0.4238 343.982 -85.7384 -176.08 
185 14 64 12.011 0.158 387.142 -176.942 -313.239 
589 43 64 12.011 0.158 342.578 -219.229 -223.992 
193 14 20 1.008 0.032 386.235 -176.347 -313.589 
4717 1114 70 15.9994 -0.8476 243.531 -267.627 -266.37 
4716 1114 71 1.008 0.4238 243.975 -266.812 -266.741 
4884 1170 71 1.008 0.4238 203.968 -221.005 -179.715 
6296 1641 71 1.008 0.4238 293.249 -318.406 -228.294 
9939 2855 71 1.008 0.4238 434.147 -219.89 -412.748 
4883 1170 71 1.008 0.4238 202.485 -221.168 -180.378 
2455 360 70 15.9994 -0.8476 244.712 -123.833 -220.098 
4311 979 71 1.008 0.4238 242.697 -81.3191 -222.079 
4310 979 71 1.008 0.4238 244.299 -81.1089 -222.315 
4312 979 70 15.9994 -0.8476 243.598 -81.3492 -221.644 
4885 1170 70 15.9994 -0.8476 203.425 -220.868 -180.543 
6298 1641 70 15.9994 -0.8476 292.552 -317.708 -228.459 
3722 783 71 1.008 0.4238 246.944 -271.114 -225.75 
3724 783 70 15.9994 -0.8476 246.356 -270.316 -225.882 
3723 783 71 1.008 0.4238 245.66 -270.526 -226.568 
10226 2951 71 1.008 0.4238 384.269 -133.281 -86.6775 
10225 2950 70 15.9994 -0.8476 247.846 -225.701 -272.264 
10224 2950 71 1.008 0.4238 247.558 -225.287 -271.4 
6555 1727 71 1.008 0.4238 387.377 -128.244 -271.384 
6556 1727 70 15.9994 -0.8476 387.295 -127.899 -270.449 
6554 1727 71 1.008 0.4238 388.045 -128.259 -269.894 
9763 2796 70 15.9994 -0.8476 247.705 -225.563 -228.065 
9761 2796 71 1.008 0.4238 247.866 -225.497 -227.081 
4143 923 71 1.008 0.4238 156.01 -317.9 -125.406 
4144 923 70 15.9994 -0.8476 155.998 -316.962 -125.061 
195 14 21 1.008 0.398 384.959 -178.563 -313.825 
8379 2335 71 1.008 0.4238 385.317 -175.558 -275.104 
4071 899 71 1.008 0.4238 477.676 -85.4267 -315.383 
9140 2589 71 1.008 0.4238 341.801 -133.555 -128.595 
9940 2855 70 15.9994 -0.8476 433.755 -218.993 -412.949 
602 43 21 1.008 0.417 340.962 -218.132 -224.136 
9938 2855 71 1.008 0.4238 433.165 -218.71 -412.193 
590 43 12 12.011 0.166 344.149 -219.09 -223.971 
599 43 20 1.008 0.032 344.284 -218.737 -226.081 
4261 962 70 15.9994 -0.8476 196.417 -265.575 -363.845 
9864 2830 71 1.008 0.4238 433.704 -266.667 -228.662 
4072 899 70 15.9994 -0.8476 477.857 -86.2664 -315.895 
8378 2335 71 1.008 0.4238 383.718 -175.632 -274.783 
2453 360 71 1.008 0.4238 244.364 -123.829 -221.035 
10023 2883 71 1.008 0.4238 383.954 -224.376 -221.227 
10024 2883 70 15.9994 -0.8476 383.706 -224.947 -220.444 
592 43 67 15.9994 -0.631 341.921 -217.946 -223.889 
1831 152 70 15.9994 -0.8476 149.941 -125.27 -274.452 
1830 152 71 1.008 0.4238 150.415 -125.312 -273.572 
4259 962 71 1.008 0.4238 196.213 -264.852 -364.506 
9762 2796 71 1.008 0.4238 247.183 -226.392 -228.263 
2572 399 70 15.9994 -0.8476 246.263 -275.022 -322.804 
1829 152 71 1.008 0.4238 149.431 -126.118 -274.596 
596 43 20 1.008 0.031 344.444 -218.64 -223.021 
591 43 64 12.011 0.158 344.515 -218.214 -225.148 
2570 399 71 1.008 0.4238 246.765 -275.875 -322.947 
2571 399 71 1.008 0.4238 245.303 -275.154 -323.05 
10228 2951 70 15.9994 -0.8476 384.6 -134.053 -87.2194 
2366 331 71 1.008 0.4238 290.167 -264.54 -180.28 
9851 2826 71 1.008 0.4238 337.524 -87.7497 -268.972 
192 14 20 1.008 0.032 387.057 -177.069 -312.183 
8990 2539 71 1.008 0.4238 292.698 -171.009 -311.55 
5087 1238 71 1.008 0.4238 345.254 -265.46 -171.189 
4142 923 71 1.008 0.4238 156.07 -316.972 -124.063 
8091 2239 71 1.008 0.4238 290.493 -267.766 -264.427 
2909 512 71 1.008 0.4238 297.468 -225.789 -217.307 
8991 2539 71 1.008 0.4238 293.994 -171.22 -312.521 
8625 2417 71 1.008 0.4238 345.39 -271.715 -226.549 
2328 318 71 1.008 0.4238 204.217 -127.445 -314.025 
5313 1313 71 1.008 0.4238 250.533 -226.753 -267.11 
5314 1313 70 15.9994 -0.8476 250.739 -225.872 -266.685 
7297 1974 70 15.9994 -0.8476 298.219 -87.2812 -173.656 
4230 952 71 1.008 0.4238 289.273 -178.277 -227.044 
4231 952 70 15.9994 -0.8476 289.609 -178.641 -227.912 
4260 962 71 1.008 0.4238 195.62 -266.17 -363.745 
8899 2508 70 15.9994 -0.8476 340.434 -181.876 -223.117 
598 43 20 1.008 0.032 343.838 -217.368 -225.15 
2368 331 70 15.9994 -0.8476 289.173 -264.651 -180.263 
3569 732 71 1.008 0.4238 389.206 -181.558 -265.143 
9900 2842 71 1.008 0.4238 345.23 -85.6649 -177.13 
9865 2830 70 15.9994 -0.8476 434.62 -266.908 -228.982 
188 14 20 1.008 0.032 389.006 -178.833 -314.055 
183 14 64 12.011 0.158 388.14 -179.243 -313.429 
186 14 67 15.9994 -0.631 387.989 -180.655 -313.647 
8897 2508 71 1.008 0.4238 340.227 -181.572 -224.047 
9335 2654 71 1.008 0.4238 249.558 -172.081 -87.4503 
187 14 20 1.008 0.032 388.441 -179.11 -312.409 
5089 1238 70 15.9994 -0.8476 345.288 -265.605 -170.201 
8992 2539 70 15.9994 -0.8476 293.586 -171.459 -311.64 
4449 1025 71 1.008 0.4238 294.975 -223.258 -217.972 
8369 2332 71 1.008 0.4238 337.367 -321.858 -358.83 
2005 210 70 15.9994 -0.8476 151.82 -275.586 -272.85 
2004 210 71 1.008 0.4238 151.892 -274.86 -273.535 
196 14 21 1.008 0.417 387.02 -180.887 -313.702 
9336 2654 71 1.008 0.4238 248.052 -171.525 -87.7473 
3141 589 71 1.008 0.4238 204.196 -364.928 -134.663 
9337 2654 70 15.9994 -0.8476 248.933 -171.31 -87.3259 
601 43 21 1.008 0.398 345.66 -220.469 -224.248 
10306 2977 70 15.9994 -0.8476 252.802 -321.214 -225.116 
8479 2368 70 15.9994 -0.8476 300.793 -170.31 -270.598 
8477 2368 71 1.008 0.4238 300.705 -171.147 -270.059 
9187 2604 70 15.9994 -0.8476 299.509 -224.301 -270.039 
9185 2604 71 1.008 0.4238 300.061 -224.21 -270.867 
9186 2604 71 1.008 0.4238 298.543 -224.366 -270.287 
9987 2871 71 1.008 0.4238 252.291 -123.153 -228.529 
2329 318 70 15.9994 -0.8476 204.953 -126.8 -314.232 
2327 318 71 1.008 0.4238 204.604 -125.865 -314.171 
3899 842 71 1.008 0.4238 210.82 -266.123 -369.753 
7667 2098 71 1.008 0.4238 300.317 -221.843 -319.576 
7669 2098 70 15.9994 -0.8476 299.744 -221.099 -319.92 
8478 2368 71 1.008 0.4238 299.986 -170.201 -271.179 
3272 633 71 1.008 0.4238 348.288 -270.845 -226.446 
3274 633 70 15.9994 -0.8476 348.062 -270.694 -225.484 
5312 1313 71 1.008 0.4238 251.625 -225.543 -267.013 
7668 2098 71 1.008 0.4238 300.323 -220.333 -320.199 
6053 1560 71 1.008 0.4238 252.772 -315.616 -221.617 
6054 1560 71 1.008 0.4238 252.498 -316.749 -222.76 
6055 1560 70 15.9994 -0.8476 252.868 -315.836 -222.587 
10265 2964 71 1.008 0.4238 445.325 -172.772 -172.969 
10266 2964 71 1.008 0.4238 446.187 -174.115 -172.623 
2047 224 70 15.9994 -0.8476 254.765 -219.897 -128.965 
4272 966 71 1.008 0.4238 256.763 -173.372 -318.052 
4271 966 71 1.008 0.4238 258.324 -173.385 -317.575 
4273 966 70 15.9994 -0.8476 257.538 -173.956 -317.811 
10267 2964 70 15.9994 -0.8476 445.313 -173.649 -172.489 
2046 224 71 1.008 0.4238 254.607 -219.364 -129.796 
8320 2315 70 15.9994 -0.8476 348.414 -171.959 -226.216 
8318 2315 71 1.008 0.4238 349.38 -171.749 -226.065 
3273 633 71 1.008 0.4238 348.801 -271.044 -224.909 
2948 525 71 1.008 0.4238 302.807 -220.716 -228.738 
8319 2315 71 1.008 0.4238 347.938 -171.135 -226.524 
2949 525 71 1.008 0.4238 303.657 -222.087 -228.483 
2950 525 70 15.9994 -0.8476 302.789 -221.713 -228.812 
6280 1635 70 15.9994 -0.8476 260.624 -178.458 -273.164 
6279 1635 71 1.008 0.4238 259.862 -178.989 -272.794 
3411 679 71 1.008 0.4238 260.553 -179.149 -175.327 
3410 679 71 1.008 0.4238 260.022 -177.606 -175.394 
3412 679 70 15.9994 -0.8476 260.344 -178.333 -174.788 
1508 108 20 1.008 0.032 260.616 -221.047 -179.266 
1510 108 58 1.008 0.417 260.565 -223.959 -179.011 
1507 108 67 15.9994 -0.631 260.145 -223.077 -178.88 
2681 436 71 1.008 0.4238 351.687 -177.242 -267.92 
7333 1986 70 15.9994 -0.8476 353.685 -221.803 -313.237 
2682 436 71 1.008 0.4238 352.832 -178.404 -267.982 
2683 436 70 15.9994 -0.8476 351.902 -178.189 -267.683 
7421 2016 71 1.008 0.4238 304.848 -228.74 -80.8287 
2467 364 70 15.9994 -0.8476 259.378 -223.443 -317.722 
2465 364 71 1.008 0.4238 259.634 -223.516 -318.686 
6465 1697 71 1.008 0.4238 161.203 -127.267 -219.541 
2466 364 71 1.008 0.4238 258.483 -223.003 -317.647 
6698 1775 71 1.008 0.4238 396.796 -179.341 -223.344 
6699 1775 71 1.008 0.4238 397.059 -177.738 -223.17 
6700 1775 70 15.9994 -0.8476 396.748 -178.451 -223.799 
1860 162 71 1.008 0.4238 258.855 -363.426 -274.239 
2436 354 71 1.008 0.4238 303.421 -128.415 -363.989 
8196 2274 71 1.008 0.4238 257.088 -132.636 -268.076 
8197 2274 70 15.9994 -0.8476 256.674 -133.519 -268.299 
3428 685 71 1.008 0.4238 253.874 -224.46 -125.396 
3429 685 71 1.008 0.4238 253.317 -224.483 -126.931 
3430 685 70 15.9994 -0.8476 253.197 -224.862 -126.013 
2437 354 70 15.9994 -0.8476 303.397 -128.784 -363.06 
2435 354 71 1.008 0.4238 302.887 -128.16 -362.467 
7725 2117 71 1.008 0.4238 398.631 -217.355 -271.11 
5995 1540 70 15.9994 -0.8476 397.721 -218.664 -362.661 
7912 2179 70 15.9994 -0.8476 260.764 -130.228 -219.345 
2045 224 71 1.008 0.4238 254.09 -220.633 -128.908 
3209 612 71 1.008 0.4238 260.747 -175.254 -222.723 
10060 2895 70 15.9994 -0.8476 302.752 -226.089 -226.769 
10059 2895 71 1.008 0.4238 302.238 -225.328 -227.164 
5993 1540 71 1.008 0.4238 398.139 -217.967 -363.243 
3420 682 71 1.008 0.4238 350.463 -171.071 -360.442 
10058 2895 71 1.008 0.4238 302.915 -225.914 -225.798 
2201 276 71 1.008 0.4238 164.636 -86.768 -367.596 
2203 276 70 15.9994 -0.8476 164.371 -86.0877 -366.913 
5994 1540 71 1.008 0.4238 397.032 -219.165 -363.183 
9715 2780 70 15.9994 -0.8476 115.184 -123.484 -131.379 
9713 2780 71 1.008 0.4238 115.996 -123.564 -131.958 
5604 1410 71 1.008 0.4238 305.339 -170.433 -312.584 
3210 612 71 1.008 0.4238 260.635 -173.631 -222.583 
9904 2843 70 15.9994 -0.8476 258.701 -311.894 -321.119 
7911 2179 71 1.008 0.4238 260.541 -130.639 -220.228 
7910 2179 71 1.008 0.4238 260.231 -129.391 -219.223 
2202 276 71 1.008 0.4238 164.249 -86.5353 -366.027 
8961 2529 71 1.008 0.4238 354.412 -218.97 -271.114 
9903 2843 71 1.008 0.4238 259.495 -312.183 -320.583 
8962 2529 70 15.9994 -0.8476 354.039 -219.214 -270.219 
3450 692 71 1.008 0.4238 303.75 -175.502 -170.835 
7332 1986 71 1.008 0.4238 354.586 -221.506 -313.553 
8195 2274 71 1.008 0.4238 256.621 -134.081 -267.474 
5605 1410 70 15.9994 -0.8476 306.311 -170.661 -312.643 
1859 162 71 1.008 0.4238 258.534 -364.432 -275.485 
3725 784 71 1.008 0.4238 302.644 -134.159 -273.597 
1861 162 70 15.9994 -0.8476 258.474 -363.488 -275.162 
6500 1709 71 1.008 0.4238 299.776 -275.322 -314.246 
8960 2529 71 1.008 0.4238 353.369 -218.527 -269.938 
3727 784 70 15.9994 -0.8476 301.942 -134.773 -273.236 
10305 2977 71 1.008 0.4238 253.145 -321.783 -225.864 
4641 1089 71 1.008 0.4238 256.786 -131.072 -313.177 
2999 542 71 1.008 0.4238 305.846 -274.643 -170.246 
4642 1089 70 15.9994 -0.8476 256.517 -131.363 -312.26 
3000 542 71 1.008 0.4238 304.272 -274.211 -170.258 
6501 1709 71 1.008 0.4238 300.867 -274.208 -313.76 
6502 1709 70 15.9994 -0.8476 300.545 -275.146 -313.631 
3900 842 71 1.008 0.4238 210.784 -267.736 -370.001 
8816 2481 71 1.008 0.4238 348.871 -176.343 -228.983 
9383 2670 71 1.008 0.4238 255.223 -228.042 -80.8067 
5232 1286 71 1.008 0.4238 259.93 -228.027 -222.207 
2632 419 70 15.9994 -0.8476 213.293 -180.001 -124.51 
2631 419 71 1.008 0.4238 213.522 -179.028 -124.493 
3140 589 71 1.008 0.4238 204.432 -364.2 -133.22 
5805 1477 71 1.008 0.4238 251.687 -181.237 -275.076 
3726 784 71 1.008 0.4238 302.003 -134.798 -272.238 
705 51 20 1.008 0.032 256.542 -276.102 -228.439 
10258 2961 70 15.9994 -0.8476 353.815 -224.906 -275.726 
597 43 67 15.9994 -0.631 345.937 -217.78 -225.228 
600 43 58 1.008 0.417 346.233 -217.53 -226.125 
10257 2961 71 1.008 0.4238 353.078 -225.545 -275.948 
9384 2670 71 1.008 0.4238 253.973 -229.048 -81.1102 
9099 2575 71 1.008 0.4238 209.887 -179.402 -228.125 
10222 2949 70 15.9994 -0.8476 204.969 -132.654 -134.552 
8817 2481 71 1.008 0.4238 347.513 -177.031 -228.392 
8818 2481 70 15.9994 -0.8476 348.511 -177.092 -228.428 
5043 1223 71 1.008 0.4238 394.453 -134.625 -265.191 
7295 1974 71 1.008 0.4238 298.809 -87.7573 -174.307 
7331 1986 71 1.008 0.4238 353.45 -221.316 -312.396 
5603 1410 71 1.008 0.4238 306.502 -171.457 -312.069 
6466 1697 70 15.9994 -0.8476 160.456 -127.932 -219.529 
4640 1089 71 1.008 0.4238 256.618 -130.599 -311.623 
6464 1697 71 1.008 0.4238 159.624 -127.491 -219.192 
3142 589 70 15.9994 -0.8476 204.648 -365.004 -133.774 
10304 2977 71 1.008 0.4238 253.56 -320.962 -224.515 
10221 2949 71 1.008 0.4238 205.366 -131.82 -134.17 
9385 2670 70 15.9994 -0.8476 254.549 -228.323 -81.4893 
10256 2961 71 1.008 0.4238 354.119 -225.062 -274.786 
9100 2575 70 15.9994 -0.8476 210.336 -179.183 -228.991 
7423 2016 70 15.9994 -0.8476 305.283 -229.073 -81.6661 
2673 433 71 1.008 0.4238 361.515 -228.717 -180.595 
2672 433 71 1.008 0.4238 359.953 -228.801 -181.063 
1509 108 20 1.008 0.032 261.406 -221.728 -177.918 
1501 108 64 12.011 0.158 261.076 -221.973 -178.892 
5736 1454 71 1.008 0.4238 313.445 -127.365 -181.65 
6772 1799 70 15.9994 -0.8476 308.132 -265.523 -319.886 
10163 2930 71 1.008 0.4238 355.344 -123.447 -170.963 
5233 1286 70 15.9994 -0.8476 260.923 -228.103 -222.3 
3211 612 70 15.9994 -0.8476 261.25 -174.416 -222.511 
7989 2205 71 1.008 0.4238 261.875 -267.936 -126.486 
1505 108 67 15.9994 -0.611 263.237 -223.09 -179.115 
1500 108 12 12.011 0.166 262.443 -222.015 -179.579 
1506 108 20 1.008 0.031 262.211 -222.128 -180.628 
1511 108 21 1.008 0.398 263.446 -222.772 -178.233 
1512 108 21 1.008 0.417 263.385 -219.678 -181.132 
6278 1635 71 1.008 0.4238 261.474 -178.974 -273.057 
1502 108 67 15.9994 -0.631 262.842 -219.63 -180.295 
6663 1763 71 1.008 0.4238 263.742 -224.671 -274.19 
1499 108 64 12.011 0.158 263.276 -220.704 -179.438 
1503 108 20 1.008 0.032 264.348 -220.937 -179.725 
1504 108 20 1.008 0.032 263.325 -220.468 -178.402 
6970 1865 70 15.9994 -0.8476 122.573 -127.925 -270.745 
6969 1865 71 1.008 0.4238 121.98 -127.485 -270.07 
6968 1865 71 1.008 0.4238 122.672 -128.894 -270.519 
7990 2205 70 15.9994 -0.8476 261.827 -267.872 -125.489 
7988 2205 71 1.008 0.4238 262.663 -267.449 -125.142 
7466 2031 71 1.008 0.4238 361.979 -316.048 -227.148 
7468 2031 70 15.9994 -0.8476 360.996 -315.937 -227.001 
7997 2208 71 1.008 0.4238 313.969 -177.88 -320.652 
10184 2937 71 1.008 0.4238 219.475 -223.311 -271.151 
10186 2937 70 15.9994 -0.8476 219.466 -222.393 -271.547 
7999 2208 70 15.9994 -0.8476 313.519 -177.529 -321.473 
7998 2208 71 1.008 0.4238 313.33 -176.554 -321.359 
10185 2937 71 1.008 0.4238 218.916 -221.787 -270.972 
427 31 67 15.9994 -0.611 218.031 -180.84 -269.982 
428 31 20 1.008 0.031 218.665 -179.246 -268.822 
422 31 12 12.011 0.166 218.205 -179.429 -269.771 
425 31 20 1.008 0.032 216.136 -179.179 -269.235 
424 31 67 15.9994 -0.631 216.962 -177.306 -269.478 
426 31 20 1.008 0.032 216.527 -178.761 -270.937 
421 31 64 12.011 0.158 216.855 -178.694 -269.865 
5326 1317 70 15.9994 -0.8476 410.209 -226.427 -273.059 
431 31 20 1.008 0.032 220.052 -179.537 -270.892 
434 31 21 1.008 0.417 216.918 -177.24 -268.443 
423 31 64 12.011 0.158 219.24 -178.825 -270.698 
430 31 20 1.008 0.032 218.728 -178.745 -271.632 
429 31 67 15.9994 -0.631 219.843 -177.578 -270.198 
5325 1317 71 1.008 0.4238 409.352 -226.943 -273.054 
2162 263 71 1.008 0.4238 175.49 -271.944 -320.095 
2164 263 70 15.9994 -0.8476 175.702 -270.975 -319.963 
432 31 58 1.008 0.417 220.381 -177.759 -269.344 
5787 1471 71 1.008 0.4238 316.353 -219.174 -273.947 
7467 2031 71 1.008 0.4238 360.792 -316.031 -226.027 
579 42 20 1.008 0.032 266.688 -173.86 -315.756 
587 42 21 1.008 0.398 265.509 -172.076 -316.772 
581 42 67 15.9994 -0.611 264.969 -171.879 -315.872 
582 42 20 1.008 0.031 266.995 -171.668 -315.017 
576 42 12 12.011 0.166 265.971 -172.102 -314.791 
575 42 64 12.011 0.158 266.219 -173.617 -314.778 
580 42 20 1.008 0.032 265.268 -174.194 -314.659 
578 42 67 15.9994 -0.631 267.064 -173.978 -313.698 
577 42 64 12.011 0.158 265.347 -171.644 -313.449 
588 42 21 1.008 0.417 266.747 -174.913 -313.489 
7076 1901 71 1.008 0.4238 404.65 -275.251 -367.24 
583 42 67 15.9994 -0.631 264.068 -172.306 -313.175 
4134 920 71 1.008 0.4238 315.032 -225.986 -220.441 
4133 920 71 1.008 0.4238 316.062 -224.723 -220.332 
6662 1763 71 1.008 0.4238 264.426 -225.335 -275.516 
6664 1763 70 15.9994 -0.8476 263.659 -225.393 -274.877 
8831 2486 71 1.008 0.4238 410.267 -221.179 -266.711 
8833 2486 70 15.9994 -0.8476 411.245 -221.379 -266.778 
2630 419 71 1.008 0.4238 213.947 -180.487 -125.091 
4135 920 70 15.9994 -0.8476 315.149 -225.009 -220.622 
8276 2301 71 1.008 0.4238 360.001 -171.509 -271.941 
8277 2301 71 1.008 0.4238 361.323 -171.716 -271.004 
8278 2301 70 15.9994 -0.8476 360.361 -171.96 -271.124 
8846 2491 71 1.008 0.4238 311.478 -130.44 -219.236 
2555 394 71 1.008 0.4238 222.997 -221.578 -222.811 
8832 2486 71 1.008 0.4238 411.471 -221.627 -267.72 
3111 579 71 1.008 0.4238 404.766 -265.371 -220.739 
585 42 20 1.008 0.032 266.013 -171.978 -312.746 
8847 2491 71 1.008 0.4238 310.044 -129.944 -219.841 
8848 2491 70 15.9994 -0.8476 311.037 -129.838 -219.901 
7623 2083 71 1.008 0.4238 358.419 -222.61 -171.395 
5786 1471 71 1.008 0.4238 316.623 -220.733 -274.348 
5788 1471 70 15.9994 -0.8476 316.902 -219.985 -273.746 
7966 2197 70 15.9994 -0.8476 316.477 -175.148 -180.728 
4770 1132 71 1.008 0.4238 218.921 -311.889 -274.612 
7965 2197 71 1.008 0.4238 316.739 -175.619 -179.885 
5324 1317 71 1.008 0.4238 410.972 -227.045 -272.871 
4416 1014 71 1.008 0.4238 409.518 -127.381 -224.178 
9228 2618 71 1.008 0.4238 403.297 -275.882 -180.058 
6521 1716 71 1.008 0.4238 409.952 -217.835 -413.374 
7230 1952 71 1.008 0.4238 221.987 -321.651 -220.973 
6523 1716 70 15.9994 -0.8476 409.919 -218.232 -412.457 
3354 660 71 1.008 0.4238 364.241 -123.26 -226.781 
586 42 58 1.008 0.417 263.769 -171.899 -312.271 
584 42 20 1.008 0.032 265.131 -170.59 -313.418 
3577 734 70 15.9994 -0.8476 360.997 -270.71 -218.665 
3575 734 71 1.008 0.4238 361.364 -271.381 -219.31 
3576 734 71 1.008 0.4238 360.814 -271.155 -217.789 
5966 1531 71 1.008 0.4238 356.028 -227.955 -173.747 
5968 1531 70 15.9994 -0.8476 356.681 -227.908 -172.991 
3355 660 70 15.9994 -0.8476 363.254 -123.148 -226.661 
7077 1901 71 1.008 0.4238 404.419 -273.893 -368.116 
7078 1901 70 15.9994 -0.8476 403.967 -274.603 -367.577 
3107 578 71 1.008 0.4238 359.52 -180.078 -265.421 
5967 1531 71 1.008 0.4238 357.494 -227.404 -173.284 
6082 1569 70 15.9994 -0.8476 363.03 -181.084 -322.968 
4415 1014 71 1.008 0.4238 410.736 -126.878 -225.142 
4417 1014 70 15.9994 -0.8476 410.511 -127.365 -224.299 
2163 263 71 1.008 0.4238 175.555 -270.729 -319.005 
6771 1799 71 1.008 0.4238 308.807 -266.111 -320.33 
10164 2930 71 1.008 0.4238 356.763 -123.411 -171.769 
10165 2930 70 15.9994 -0.8476 356.312 -123.205 -170.9 
6522 1716 71 1.008 0.4238 410.804 -218.642 -412.239 
3112 579 70 15.9994 -0.8476 404.231 -264.534 -220.625 
433 31 21 1.008 0.398 217.751 -180.945 -270.914 
3108 578 71 1.008 0.4238 358.32 -179.247 -264.69 
3109 578 70 15.9994 -0.8476 358.955 -179.255 -265.463 
5231 1286 71 1.008 0.4238 261.156 -229.006 -222.659 
7231 1952 70 15.9994 -0.8476 221.125 -322.15 -221.068 
7229 1952 71 1.008 0.4238 221.312 -323.08 -221.384 
3836 821 71 1.008 0.4238 266.097 -178.182 -275.81 
6770 1799 71 1.008 0.4238 308.496 -264.595 -319.809 
4769 1132 71 1.008 0.4238 217.348 -312.317 -274.509 
4771 1132 70 15.9994 -0.8476 218.141 -311.99 -273.994 
6467 1698 71 1.008 0.4238 315.66 -123.536 -312.859 
6469 1698 70 15.9994 -0.8476 316.461 -123.564 -313.457 
6468 1698 71 1.008 0.4238 316.207 -123.245 -314.37 
7622 2083 71 1.008 0.4238 358.659 -220.996 -171.459 
7624 2083 70 15.9994 -0.8476 358.727 -221.809 -170.881 
5409 1345 71 1.008 0.4238 411.009 -271.695 -217.68 
3439 688 70 15.9994 -0.8476 267.195 -171.425 -87.5261 
2674 433 70 15.9994 -0.8476 360.569 -228.784 -180.276 
7964 2197 71 1.008 0.4238 316.537 -175.784 -181.498 
4548 1058 71 1.008 0.4238 220.059 -229.036 -220.071 
6081 1569 71 1.008 0.4238 363.62 -181.884 -322.859 
3437 688 71 1.008 0.4238 267.22 -172.422 -87.4551 
6227 1618 71 1.008 0.4238 276.725 -217.344 -275.676 
487 35 20 1.008 0.032 278.916 -180.401 -275.508 
3866 831 71 1.008 0.4238 270.45 -223.051 -313.895 
2557 394 70 15.9994 -0.8476 223.624 -221.835 -222.076 
6841 1822 70 15.9994 -0.8476 273.717 -131.829 -228.53 
3868 831 70 15.9994 -0.8476 270.264 -224.031 -313.825 
8868 2498 71 1.008 0.4238 223.191 -174.643 -264.75 
7852 2159 70 15.9994 -0.8476 365.53 -180.817 -178.094 
7850 2159 71 1.008 0.4238 365.521 -181.502 -177.366 
3867 831 71 1.008 0.4238 271.116 -224.541 -313.94 
4611 1079 71 1.008 0.4238 229.342 -180.539 -275.01 
7835 2154 71 1.008 0.4238 271.554 -179.369 -173.696 
2556 394 71 1.008 0.4238 224.361 -222.4 -222.448 
2300 309 71 1.008 0.4238 371.277 -171.885 -317.904 
5351 1326 71 1.008 0.4238 271.708 -173.797 -320.043 
7395 2007 71 1.008 0.4238 366.703 -271.933 -272.585 
2302 309 70 15.9994 -0.8476 370.588 -171.602 -318.571 
5353 1326 70 15.9994 -0.8476 272.4 -174.436 -319.707 
5352 1326 71 1.008 0.4238 272.173 -175.362 -320.007 
6839 1822 71 1.008 0.4238 274.031 -131.051 -227.985 
5079 1235 71 1.008 0.4238 275.787 -127.275 -321.808 
4784 1137 71 1.008 0.4238 320.903 -179.931 -317.233 
4786 1137 70 15.9994 -0.8476 320.713 -180.416 -316.38 
4785 1137 71 1.008 0.4238 320.364 -179.771 -315.7 
4612 1079 70 15.9994 -0.8476 228.695 -180.964 -275.642 
7248 1958 71 1.008 0.4238 320.743 -220.463 -369.402 
9807 2811 71 1.008 0.4238 321.91 -271.233 -320.545 
9276 2634 71 1.008 0.4238 274.741 -228.921 -269.297 
9808 2811 70 15.9994 -0.8476 321.056 -270.867 -320.916 
9806 2811 71 1.008 0.4238 321.223 -269.962 -321.306 
5485 1370 70 15.9994 -0.8476 367.044 -225.154 -267.069 
5484 1370 71 1.008 0.4238 367.618 -224.345 -266.944 
5080 1235 70 15.9994 -0.8476 275.124 -127.305 -322.556 
4764 1130 71 1.008 0.4238 229.964 -131.945 -273.204 
4765 1130 70 15.9994 -0.8476 230.453 -132.633 -273.741 
4763 1130 71 1.008 0.4238 230.584 -133.456 -273.188 
5594 1407 71 1.008 0.4238 277.622 -173.942 -131.902 
5596 1407 70 15.9994 -0.8476 277.367 -174.721 -132.474 
5595 1407 71 1.008 0.4238 277.991 -174.78 -133.253 
5483 1370 71 1.008 0.4238 367.232 -225.812 -266.34 
6608 1745 71 1.008 0.4238 323.45 -224.584 -318.799 
2913 513 71 1.008 0.4238 231.573 -180.393 -270.873 
7761 2129 71 1.008 0.4238 279.461 -133.598 -77.4912 
7396 2007 70 15.9994 -0.8476 366.807 -272.478 -271.753 
8549 2392 71 1.008 0.4238 367.001 -271.141 -317.599 
7394 2007 71 1.008 0.4238 366.434 -273.393 -271.906 
2914 513 70 15.9994 -0.8476 232.111 -179.654 -270.466 
1895 174 71 1.008 0.4238 232.504 -369.323 -362.673 
6610 1745 70 15.9994 -0.8476 323.483 -224.446 -319.789 
7986 2204 71 1.008 0.4238 373.534 -267.33 -129.776 
8551 2392 70 15.9994 -0.8476 366.932 -270.162 -317.407 
8550 2392 71 1.008 0.4238 367.273 -269.644 -318.191 
4276 967 70 15.9994 -0.8476 277.018 -131.123 -222.88 
2832 486 71 1.008 0.4238 227.536 -268.955 -363.851 
4275 967 71 1.008 0.4238 277.027 -131.19 -221.882 
2833 486 70 15.9994 -0.8476 228.311 -268.675 -363.284 
2831 486 71 1.008 0.4238 228.17 -267.737 -362.967 
4046 891 71 1.008 0.4238 369.929 -223.662 -266.105 
10393 3006 70 15.9994 -0.8476 183.59 -173.843 -218.923 
4048 891 70 15.9994 -0.8476 369.087 -223.494 -266.619 
4047 891 71 1.008 0.4238 369.273 -222.852 -267.362 
6609 1745 71 1.008 0.4238 323.775 -223.509 -319.985 
4274 967 71 1.008 0.4238 277.75 -131.689 -223.259 
7240 1955 70 15.9994 -0.8476 279.445 -176.81 -272.965 
5680 1435 70 15.9994 -0.8476 324.674 -181.536 -271.373 
7837 2154 70 15.9994 -0.8476 270.957 -180.171 -173.679 
5864 1497 71 1.008 0.4238 278.516 -175.776 -222.075 
5866 1497 70 15.9994 -0.8476 278.099 -174.888 -221.88 
5865 1497 71 1.008 0.4238 277.146 -174.894 -222.182 
1897 174 70 15.9994 -0.8476 232.32 -370.069 -362.033 
10391 3006 71 1.008 0.4238 183.207 -172.952 -218.679 
9246 2624 71 1.008 0.4238 367.642 -220.175 -271.582 
7836 2154 71 1.008 0.4238 271.031 -180.624 -172.791 
10392 3006 71 1.008 0.4238 183.74 -173.882 -219.911 
2301 309 71 1.008 0.4238 370.644 -170.613 -318.709 
7987 2204 70 15.9994 -0.8476 372.853 -266.93 -129.163 
7036 1887 70 15.9994 -0.8476 225.134 -218.257 -217.412 
8985 2537 71 1.008 0.4238 225.083 -218.119 -368.536 
9245 2624 71 1.008 0.4238 369.014 -219.322 -271.348 
7985 2204 71 1.008 0.4238 372.552 -267.619 -128.504 
3315 647 71 1.008 0.4238 271.735 -220.012 -220.615 
3316 647 70 15.9994 -0.8476 271.792 -219.103 -220.202 
9247 2624 70 15.9994 -0.8476 368.056 -219.418 -271.078 
7249 1958 70 15.9994 -0.8476 320.238 -219.687 -369.778 
9821 2816 71 1.008 0.4238 273.518 -175.753 -312.094 
3191 606 71 1.008 0.4238 272.071 -133.313 -264.748 
9473 2700 71 1.008 0.4238 325.063 -224.787 -314.124 
3193 606 70 15.9994 -0.8476 271.356 -133.764 -265.282 
10250 2959 71 1.008 0.4238 230.598 -269.704 -218.032 
10251 2959 71 1.008 0.4238 231.059 -271.101 -217.324 
10252 2959 70 15.9994 -0.8476 230.326 -270.644 -217.829 
9475 2700 70 15.9994 -0.8476 324.816 -225.743 -314.283 
9474 2700 71 1.008 0.4238 324.661 -226.198 -313.407 
3192 606 71 1.008 0.4238 271.103 -134.625 -264.842 
7851 2159 71 1.008 0.4238 366.098 -181.141 -178.851 
6840 1822 71 1.008 0.4238 274.287 -132.626 -228.331 
5178 1268 71 1.008 0.4238 132.721 -134.763 -179.07 
7034 1887 71 1.008 0.4238 224.829 -218.383 -218.356 
4256 961 71 1.008 0.4238 274.009 -219.105 -316.546 
3863 830 71 1.008 0.4238 318.262 -181.399 -222.354 
4257 961 71 1.008 0.4238 273.447 -218.716 -315.062 
4258 961 70 15.9994 -0.8476 274.268 -218.803 -315.628 
3314 647 71 1.008 0.4238 270.874 -218.789 -219.959 
5678 1435 71 1.008 0.4238 323.981 -181.912 -270.757 
6965 1864 71 1.008 0.4238 274.818 -171.92 -323.254 
4610 1079 71 1.008 0.4238 228.484 -181.891 -275.332 
8174 2267 71 1.008 0.4238 277.65 -170.879 -358.876 
4753 1126 70 15.9994 -0.8476 182.238 -132.247 -170.524 
3750 792 71 1.008 0.4238 274.503 -131.908 -170.564 
4752 1126 71 1.008 0.4238 182.453 -133.216 -170.403 
8176 2267 70 15.9994 -0.8476 276.74 -171.285 -358.792 
5389 1338 70 15.9994 -0.8476 279.052 -79.9517 -323.09 
7239 1955 71 1.008 0.4238 278.659 -177.423 -273.04 
7247 1958 71 1.008 0.4238 319.368 -220.006 -370.155 
2617 414 70 15.9994 -0.8476 193.782 -223.044 -222.976 
2615 414 71 1.008 0.4238 193.534 -222.48 -223.764 
10022 2883 71 1.008 0.4238 383.076 -224.445 -219.852 
9563 2730 71 1.008 0.4238 334.271 -270.74 -359.873 
9565 2730 70 15.9994 -0.8476 334.519 -270.894 -360.83 
483 35 67 15.9994 -0.611 281.413 -179.814 -275.34 
9868 2831 70 15.9994 -0.8476 327.579 -177.665 -269.013 
9866 2831 71 1.008 0.4238 328.308 -177.267 -269.57 
5539 1388 70 15.9994 -0.8476 233.183 -174.311 -272.275 
5537 1388 71 1.008 0.4238 232.704 -175.187 -272.333 
2912 513 71 1.008 0.4238 232.893 -179.448 -271.054 
7762 2129 70 15.9994 -0.8476 279.87 -133.255 -76.6456 
9867 2831 71 1.008 0.4238 327.115 -178.381 -269.534 
7238 1955 71 1.008 0.4238 280.289 -177.337 -273.063 
4229 952 71 1.008 0.4238 288.868 -178.638 -228.584 
3408 678 71 1.008 0.4238 328.003 -179.661 -226.408 
3409 678 70 15.9994 -0.8476 328.01 -179.664 -225.408 
6786 1804 71 1.008 0.4238 376.484 -222.37 -269.629 
9134 2587 71 1.008 0.4238 237.208 -318.881 -181.621 
4070 899 71 1.008 0.4238 477.33 -86.258 -316.745 
971 70 20 1.008 0.032 287.096 -172.577 -228.393 
5538 1388 71 1.008 0.4238 233.655 -174.132 -273.138 
6787 1804 70 15.9994 -0.8476 376.226 -222.827 -270.481 
6785 1804 71 1.008 0.4238 375.742 -222.181 -271.072 
7760 2129 71 1.008 0.4238 280.29 -134.013 -76.1473 
6233 1620 71 1.008 0.4238 281.03 -132.143 -171.999 
1586 114 67 15.9994 -0.631 328.866 -174.221 -227.55 
6235 1620 70 15.9994 -0.8476 281.45 -131.303 -172.344 
3407 678 71 1.008 0.4238 328.887 -180.016 -225.082 
3522 716 71 1.008 0.4238 378.196 6.91806 -221.954 
3005 544 71 1.008 0.4238 189.16 -228.583 -271.35 
3006 544 71 1.008 0.4238 189.273 -227.013 -270.918 
4909 1178 70 15.9994 -0.8476 240.662 -227.693 -129.786 
5768 1465 71 1.008 0.4238 237.142 -177.132 -177.745 
1587 114 20 1.008 0.032 329.189 -176.11 -226.648 
9829 2818 70 15.9994 -0.8476 283.982 -227.343 -180.26 
5770 1465 70 15.9994 -0.8476 236.605 -177.464 -176.97 
5769 1465 71 1.008 0.4238 235.829 -176.852 -176.815 
1583 114 64 12.011 0.158 329.797 -175.294 -227.142 
1588 114 20 1.008 0.032 330.186 -175.696 -228.07 