LAMMPS data file via write_data, version 15 Apr 2020, timestep = 10000

10411 atoms
71 atom types
7399 bonds
254 bond types
5512 angles
155 angle types
3375 dihedrals
47 dihedral types
125 impropers
5 improper types

6.6614173179930773e+00 5.3338582681979183e+01 xlo xhi
6.6614173179930773e+00 5.3338582681979183e+01 ylo yhi
6.6614173179930773e+00 5.3338582681979183e+01 zlo zhi

Masses

1 15.9994
2 15.9994
3 15.9994
4 15.9994
5 15.9994
6 14.0067
7 14.0067
8 14.0067
9 14.0067
10 14.0067
11 14.0067
12 12.011
13 12.011
14 13.019
15 14.027
16 15.035
17 16.043
18 14.027
19 12.011
20 1.008
21 1.008
22 1
23 32.06
24 63.546
25 63.546
26 55.847
27 65.37
28 24.305
29 40.08
30 39.948
31 18.9984
32 35.453
33 79.904
34 12.011
35 15.9994
36 22.9898
37 35.453
38 12.011
39 35.453
40 1.008
41 32.06
42 12.011
43 15.9994
44 12.011
45 35.453
46 18.9984
47 12.011
48 13.019
49 15.9994
50 12.011
51 15.9994
52 14.0067
53 15.035
54 126.904
55 35.453
56 10.811
57 78.96
58 1.008
59 35.453
60 79.904
61 15.9994
62 14.0067
63 12.011
64 12.011
65 14.0067
66 14.0067
67 15.9994
68 28.08
69 30.9738
70 15.9994
71 1.008

Pair Coeffs # lj/cut/coul/long

1 0.305714 2.76007
2 0.412295 2.62585
3 0.203061 2.95484
4 0.252656 2.84916
5 0.155394 3.16565
6 0.152915 3.13647
7 0.0700622 3.5722
8 0.152915 3.13647
9 0.104651 3.34113
10 0.152915 3.13647
11 0.152915 3.13647
12 0.0663015 3.58118
13 0.00167194 6.63949
14 0.0226791 5.01918
15 0.098122 4.07038
16 0.207254 3.74792
17 0.302012 3.70995
18 0.11455 3.95474
19 0.120138 3.74119
20 0.0282937 2.37341
21 0 0
22 0 0
23 0.455513 3.30769
24 2.039 1.5184
25 2.039 1.5184
26 0 0
27 1.107 1.68112
28 0.0747249 1.93323
29 0.121156 2.81311
30 0.238148 3.40984
31 0.10897 2.94006
32 0.300087 3.46982
33 0.69792 3.6508
34 0.243126 3.60124
35 0.131455 3.17694
36 0.00509651 3.12117
37 0.162149 4.09571
38 0.101741 3.40006
39 0.299511 3.44
40 0.0197496 2.20219
41 0.310038 3.55995
42 0.207254 3.74792
43 0.409923 2.63004
44 0.0544087 3.7739
45 0.270582 3.44757
46 0.0828967 3.07717
47 0.0970049 3.3611
48 0.117014 3.91992
49 0.203061 2.95484
50 0.105027 3.74991
51 0.210013 2.95998
52 0.169966 3.25006
53 0.207254 3.74792
54 0.836845 3.84961
55 0.329921 3.26983
56 0.0663015 3.58118
57 0.455513 3.30769
58 0 0
59 0.329921 3.26983
60 0.580843 3.89995
61 0.119432 3.40025
62 0.1399 3.9019
63 0.0734574 3.52053
64 0.245018 2.81144
65 0.142655 4.06776
66 0.219779 3.64529
67 0.119497 3.1
68 0.584786 3.38557
69 0.584786 3.38557
70 0.1553 3.166
71 0 0

Bond Coeffs # harmonic

1 375.239 1
2 446.941 1
3 349.274 1.09
4 1109.29 1.12
5 600.242 1.23
6 500.418 1.25
7 499.732 1.32
8 375.003 1.33
9 448.144 1.33
10 498.877 1.33
11 450.617 1.34
12 502.116 1.34
13 450.906 1.36
14 500.679 1.38
15 399.904 1.39
16 498.726 1.39
17 400.057 1.4
18 399.792 1.43
19 450.132 1.43
20 300.222 1.435
21 449.843 1.47
22 299.976 1.48
23 399.968 1.48
24 450.226 1.48
25 450.108 1.5
26 299.844 1.52
27 400.034 1.53
28 299.851 1.61
29 299.727 1.63
30 205.976 1.78
31 449.816 1.78
32 449.828 1.83
33 300.045 1.87
34 59.9679 1.98
35 60.0382 2
36 500.307 2.04
37 63.0357 2.21
38 554.493 1
39 349.928 1.1
40 599.794 1.758
41 449.829 1.53
42 444.341 1.93799
43 599.679 1.76
44 501.026 1.265
45 448.656 1.35
46 555.129 1.63299
47 350.249 2.33839
48 600.161 2.90283
49 445.884 2.79388
50 443.815 2.91189
51 409.328 2.077
52 600.173 2.87407
53 88.4321 1.1
54 56.1663 1.84
55 513.862 1.01
56 310.707 1.41
57 442.161 1.02
58 239.006 1.46
59 513.862 1.29
60 442.161 0.972
61 812.62 1.22
62 466.061 1.22
63 239.006 1.54
64 179.254 1.56
65 227.055 1.54
66 106.358 1.76
67 131.453 1.69
68 203.155 1.75
69 203.155 1.51
70 143.403 1.57
71 179.254 0.971
72 191.205 1.5
73 262.906 1.45
74 549.713 1.52
75 83.652 1.03
76 191.205 1.74
77 191.205 1.72
78 227.055 1.64
79 203.155 1.67
80 191.205 1.66
81 215.105 1.65
82 513.862 1.31
83 155.354 1.01
84 35.8509 1.89
85 101.577 1.93
86 155.354 1.36
87 167.304 1.79
88 114.723 1.35
89 155.354 1.39
90 203.155 1.38
91 227.055 0.983
92 155.354 1.3
93 418.26 1.08
94 155.354 1.9
95 1314.53 1.16
96 143.403 1.8
97 155.354 1.42
98 478.011 0.984
99 119.503 1.08
100 119.503 1.91
101 418.26 1.03
102 525.813 1.28
103 131.453 1.22
104 143.403 1.11
105 1195.03 1.21
106 466.061 1.07
107 956.023 1.21
108 693.117 1.21
109 87.2371 1.85
110 394.359 1.11
111 109.943 2.09
112 131.453 1.82
113 99.1874 1.96
114 56.1663 1.86
115 167.304 1.21
116 167.304 1.28
117 143.403 1.71
118 131.453 1.6
119 454.111 1.21
120 41.826 1.61
121 131.453 1.94
122 155.354 1.59
123 143.403 2.1
124 119.503 2.12
125 57.3614 2.13
126 203.155 1.26
127 1195.03 1.14
128 191.205 1.23
129 788.719 1.3
130 239.006 1.31
131 59.7514 2.04
132 82.457 1.34
133 621.415 0.938
134 310.707 1.16
135 34.6558 2.07
136 60.9465 1.16
137 93.2122 2.16
138 43.021 2.23
139 23.9006 2.05
140 896.272 1.19
141 728.967 1.47
142 394.359 1.57
143 1195.03 1.18
144 54.9713 1.87
145 1063.58 1.17
146 215.105 1.13
147 59.7514 2.02
148 179.254 1.07
149 250.956 1.14
150 155.354 1.06
151 537.763 1.46
152 812.62 1.17
153 92.0172 2.15
154 239.006 1.04
155 60.9465 1.4
156 1314.53 1.11
157 466.061 1.56
158 752.868 1.49
159 501.912 1.54
160 35.8509 2.17
161 35.8509 2.27
162 669.216 1.45
163 764.818 1.25
164 848.47 1.27
165 561.663 1.16
166 1434.03 1.14
167 501.912 1.17
168 537.763 1.19
169 920.172 1.14
170 227.055 1.24
171 1434.03 1.13
172 89.6272 2.91
173 57.3614 2.24
174 418.26 0.743
175 239.006 1.2
176 111.138 2.33
177 96.7973 2.42
178 83.652 1.32
179 1159.18 1.2
180 1314.53 1.2
181 430.21 1.58
182 53.7763 1.47
183 1.55354 2.77
184 5.13862 2.25
185 100.382 2.18
186 50.1912 1.52
187 93.2122 2.19
188 27.4857 1.48
189 1912.05 1.07
190 8.60421 2.8
191 87.2371 2.52
192 0.669216 2.79
193 812.62 1.16
194 1.79254 2.68
195 406.31 1.59
196 119.503 1.18
197 34.6558 2.54
198 1792.54 1.1
199 824.57 1.29
200 33.4608 2.44
201 107.553 2.41
202 112.333 2.36
203 20.3155 1.43
204 2.27055 2.57
205 19.1205 2.47
206 0.764818 2.71
207 1553.54 1.12
208 3.70459 2.75
209 501.912 1.14
210 0.717017 2.86
211 10.5163 2.64
212 1912.05 0.985
213 1.91205 2.61
214 7.40918 2.62
215 59.7514 2.46
216 3.58509 2.66
217 1.31453 2.72
218 58.5564 1.63
219 573.614 1.12
220 37.0459 2.32
221 16.7304 1.44
222 1553.54 1.16
223 7.17017 2.69
224 10.0382 2.49
225 3.22658 2.92
226 0.82457 2.29
227 9.79924 2.4
228 1.03967 2.37
229 1.55354 2.94
230 5.85564 2.95
231 1.67304 2.96
232 0.0131453 2.56
233 5.25813 2.59
234 15.5354 2.38
235 836.52 1.12
236 1.91205 2.5
237 2.39006 2.3
238 585.564 1.04
239 3.34608 2.99
240 0.967973 2.34
241 1.07553 2.98
242 2.27055 2.74
243 1063.58 1.16
244 812.62 1.5
245 1.31453 2.84
246 0.322658 2.82
247 908.222 1.23
248 466.061 1.05
249 3.34608 2.88
250 1434.03 1.18
251 1673.04 1.15
252 6.33365 2.9
253 0 0
254 100 1

Angle Coeffs # harmonic

1 45.3116 90
2 50.0917 90
3 47.7712 96
4 54.9551 100
5 47.5559 103
6 55.0345 104
7 50.1709 108
8 30.1731 109.5
9 33.8897 109.5
10 40.2609 109.5
11 45.0394 109.5
12 47.694 109.5
13 55.1272 109.5
14 47.635 109.6
15 55.1139 111
16 55.0997 113
17 4.824 115
18 45.0699 115
19 59.7937 115
20 44.8085 116
21 59.7719 116
22 60.1639 117
23 34.88 120
24 39.8095 120
25 45.1871 120
26 47.4278 120
27 50.1166 120
28 59.9756 120
29 69.8346 120
30 60.0726 121
31 60.091 122
32 34.8146 123
33 59.8929 124
34 30.0075 125
35 60.0779 125
36 44.9139 126
37 49.998 126
38 60.166 126
39 50.1189 132
40 47.5187 155
41 28.4971 180
42 45.9951 109.5
43 52.4767 107.57
44 65.472 111.3
45 55.0189 97.4
46 55.0247 106.75
47 47.5019 108.53
48 65.5335 109.5
49 54.9566 107.6
50 47.4817 109.5
51 54.9931 110.3
52 55.0234 111.4
53 60.044 117.2
54 60.0023 121.4
55 48.24 180
56 180.46 109
57 192.229 106
58 145.153 126
59 145.153 96.2
60 156.922 114
61 203.998 119
62 239.306 130
63 298.152 107
64 156.922 134
65 239.306 101
66 286.382 113
67 368.766 134
68 356.997 119
69 333.459 126
70 251.075 89.6
71 380.536 114
72 286.382 135
73 145.153 88.3
74 133.384 60
75 380.536 179
76 251.075 180
77 470.766 178
78 47.0766 59.9
79 47.0766 60.3
80 251.075 124
81 706.149 118
82 117.691 144
83 627.688 123
84 470.766 118
85 333.459 94.8
86 90.2301 175
87 156.922 82.8
88 117.691 77.6
89 239.306 145
90 251.075 50.8
91 380.536 104
92 262.844 84.4
93 215.768 63.3
94 215.768 61
95 298.152 173
96 192.229 173
97 82.384 50.9
98 431.535 127
99 62.7688 67.8
100 156.922 180
101 588.457 118
102 30.1731 110
103 227.537 94.8
104 431.535 173
105 34.5228 78.5
106 70.6149 138
107 70.6149 168
108 156.922 167
109 18.046 149
110 333.459 144
111 356.997 148
112 321.69 144
113 356.997 148
114 321.69 147
115 333.459 144
116 5099.96 60.8
117 1451.53 68
118 298.152 161
119 156.922 155
120 309.921 154
121 215.768 75.3
122 309.921 64.7
123 549.227 173
124 3334.59 45.8
125 863.071 123
126 549.227 123
127 470.766 166
128 380.536 166
129 203.998 139
130 66.6918 161
131 7.45379 44.9
132 25.1075 84.8
133 192.229 161
134 333.459 70.4
135 627.688 173
136 1.92229 51.6
137 21.5768 73.3
138 7.45379 174
139 470.766 132
140 145.153 69.9
141 15.6922 144
142 1922.29 97.9
143 392.305 155
144 588.457 104
145 117.691 149
146 509.996 157
147 286.382 166
148 333.459 89.8
149 392.305 79.1
150 6669.18 45.2
151 470.766 101
152 745.379 125
153 168.691 49.6
154 509.996 112
155 100 109.47

Dihedral Coeffs # harmonic

1 0.638145 -1 1
2 0.81501 -1 1
3 1.18786 -1 1
4 1.40057 -1 1
5 2.2347 -1 1
6 2.2586 -1 1
7 0.666826 1 1
8 1.27868 1 1
9 0.365679 -1 2
10 1.40057 -1 2
11 1.69933 -1 2
12 3.9914 -1 2
13 5.73614 -1 2
14 8.00669 -1 2
15 9.99044 -1 2
16 0 1 2
17 0.0999044 1 2
18 0.499522 1 2
19 0.750478 1 2
20 1.21654 1 2
21 3.9914 1 2
22 0.250956 1 3
23 0.301147 1 3
24 0.310707 1 3
25 0.604685 1 3
26 0.700287 1 3
27 0.762428 1 3
28 0.872371 1 3
29 0.901052 1 3
30 0.932122 1 3
31 0.999044 1 3
32 1.12094 1 3
33 1.30019 1 3
34 1.41491 1 3
35 1.83795 1 3
36 2.06023 1 3
37 2.27055 1 3
38 0 1 4
39 0.239006 -1 6
40 0.239006 1 6
41 0.901052 1 6
42 0.83652 -1 2
43 0.669216 1 3
44 0.167304 -1 6
45 0.0956023 1 6
46 0.239006 -1 3
47 0 1 1

Improper Coeffs # harmonic

1 20.0075 0
2 40.0151 35.2644
3 80.0302 0
4 20.0075 180
5 40.0151 -35.2644

Atoms # full

10223 2950 71 4.2380000000000001e-01 1.2707272241482547e+01 8.0264843166315192e+00 8.5605591952265225e+00 5 -5 -6
2371 332 70 -8.4760000000000002e-01 8.9369827862257178e+00 9.2766891206075375e+00 7.8137713031586893e+00 7 -4 -6
593 43 20 3.2000000000000001e-02 1.3467830534832181e+01 1.4139543498686237e+01 8.2274978641453362e+00 7 -5 -5
594 43 20 3.2000000000000001e-02 1.1847207350332518e+01 1.4647124358554397e+01 7.8187891345676110e+00 7 -5 -5
7657 2094 70 -8.4760000000000002e-01 1.4263005789503396e+01 7.4880445642475868e+00 1.1926822692623821e+01 7 -8 -6
7655 2094 71 4.2380000000000001e-01 1.4678721422943878e+01 7.7570296196853050e+00 1.1058012229554610e+01 7 -8 -6
2153 260 71 4.2380000000000001e-01 1.3499142007145384e+01 1.0552362610986822e+01 1.2696872614065981e+01 6 -5 -6
4715 1114 71 4.2380000000000001e-01 1.3216167006333059e+01 1.1489904342976423e+01 1.0231470101968458e+01 5 -6 -6
2154 260 71 4.2380000000000001e-01 1.3291607117462192e+01 8.9436451412760540e+00 1.2508208526817196e+01 6 -5 -6
2155 260 70 -8.4760000000000002e-01 1.2843676160615706e+01 9.8001749745225410e+00 1.2764564508229107e+01 6 -5 -6
194 14 58 4.1699999999999998e-01 1.2784482617880606e+01 9.6672314239935950e+00 1.6498832073183593e+01 8 -4 -7
191 14 67 -6.3100000000000001e-01 1.2567217090424549e+01 8.8641457999993989e+00 1.6953971465269561e+01 8 -4 -7
185 14 64 1.5800000000000000e-01 1.1898662116455309e+01 8.0682110872385646e+00 1.5910353352400415e+01 8 -4 -7
589 43 64 1.5800000000000000e-01 1.2939331220296379e+01 1.4896638437831282e+01 7.7002489954657802e+00 7 -5 -5
4717 1114 70 -8.4760000000000002e-01 1.3852723688088169e+01 1.1013436947668318e+01 9.6250225735798871e+00 5 -6 -6
4716 1114 71 4.2380000000000001e-01 1.3497660853262170e+01 1.0101538685525519e+01 9.4191649840651657e+00 5 -6 -6
9939 2855 71 4.2380000000000001e-01 1.0985776897452613e+01 1.3012043810803052e+01 1.1617844717435894e+01 9 -5 -9
2455 360 70 -8.4760000000000002e-01 1.0099734618718074e+01 1.1459535153594121e+01 1.6444731416225139e+01 5 -3 -5
4311 979 71 4.2380000000000001e-01 9.1926251788143158e+00 7.2200691283504073e+00 1.0473608952075534e+01 5 -2 -5
4312 979 70 -8.4760000000000002e-01 8.9833339641423962e+00 7.9544533239989095e+00 1.1119272471804795e+01 5 -2 -5
2454 360 71 4.2380000000000001e-01 9.5386932221674670e+00 1.1986859305402238e+01 1.5806635668576991e+01 5 -3 -5
10225 2950 70 -8.4760000000000002e-01 1.3534525396905426e+01 8.3553013472275239e+00 9.0161208150466781e+00 5 -5 -6
10224 2950 71 4.2380000000000001e-01 1.4339601580312252e+01 7.9804318408728161e+00 8.5564149618279615e+00 5 -5 -6
9940 2855 70 -8.4760000000000002e-01 1.1011698383883578e+01 1.2170785603938537e+01 1.1077828717316667e+01 9 -5 -9
602 43 21 4.1699999999999998e-01 1.2662890261946504e+01 1.6239761107081407e+01 9.2440033237803814e+00 7 -5 -5
9938 2855 71 4.2380000000000001e-01 1.0756400484100231e+01 1.1395695487937308e+01 1.1655810345760370e+01 9 -5 -9
2453 360 71 4.2380000000000001e-01 1.0746996152164023e+01 1.0895554038465590e+01 1.5931913092527756e+01 5 -3 -5
592 43 67 -6.3100000000000001e-01 1.3104282616939312e+01 1.6174478526737808e+01 8.3635250402550376e+00 7 -5 -5
1831 152 70 -8.4760000000000002e-01 1.1866871899041529e+01 1.4275441349595752e+01 1.2992765307530522e+01 3 -3 -6
1830 152 71 4.2380000000000001e-01 1.1974761036176609e+01 1.5061563625436024e+01 1.3601350921123274e+01 3 -3 -6
10022 2883 71 4.2380000000000001e-01 9.3901592976687098e+00 1.3228673164652779e+01 8.5346512148169982e+00 8 -5 -5
9563 2730 71 4.2380000000000001e-01 1.1279724387330425e+01 9.6914287249324325e+00 1.2994494022885274e+01 7 -6 -8
1829 152 71 4.2380000000000001e-01 1.2756722835385570e+01 1.4024118315449366e+01 1.2611967174740254e+01 3 -3 -6
8091 2239 71 4.2380000000000001e-01 1.1205642504542624e+01 1.3273500910425952e+01 1.6736105753952533e+01 6 -6 -6
9564 2730 71 4.2380000000000001e-01 9.9308894587468153e+00 9.4461744129452843e+00 1.2107289736159572e+01 7 -6 -8
9565 2730 70 -8.4760000000000002e-01 1.0306543404419401e+01 9.9061246862935377e+00 1.2911860324321978e+01 7 -6 -8
192 14 20 3.2000000000000001e-02 1.1037808512612687e+01 8.6127208860414672e+00 1.5449502592887276e+01 8 -4 -7
2927 518 71 4.2380000000000001e-01 8.6402664265337190e+00 1.5048205250177908e+01 9.8479099038127380e+00 7 -4 -5
2929 518 70 -8.4760000000000002e-01 8.5731669576442489e+00 1.4710859451414418e+01 8.9089214387766766e+00 7 -4 -5
6728 1785 71 4.2380000000000001e-01 8.7743719663844075e+00 1.0000349523984072e+01 1.3869118389042512e+01 7 -6 -4
6730 1785 70 -8.4760000000000002e-01 7.9208813016624546e+00 1.0362424801778513e+01 1.4243897867888894e+01 7 -6 -4
2928 518 71 4.2380000000000001e-01 9.0041595055229795e+00 1.5365559193280781e+01 8.2879403279517216e+00 7 -4 -5
6729 1785 71 4.2380000000000001e-01 7.5755506492297275e+00 1.1086707434963287e+01 1.3647101967852393e+01 7 -6 -4
4448 1025 71 4.2380000000000001e-01 1.2677875680180609e+01 1.0472123429012925e+01 1.4384591283520486e+01 6 -5 -5
4450 1025 70 -8.4760000000000002e-01 1.2641037200405064e+01 1.0945207781981605e+01 1.5264840825804557e+01 6 -5 -5
5918 1515 71 4.2380000000000001e-01 7.1566712993098403e+00 1.4545731987750965e+01 1.4317881682211912e+01 5 -6 -5
3505 710 70 -8.4760000000000002e-01 7.6254073200919334e+00 1.6258621255910587e+01 1.1342547632996975e+01 6 -8 -5
3375 667 71 4.2380000000000001e-01 8.7401333185452348e+00 1.4920798345043575e+01 1.1990539881329919e+01 5 -4 -4
3376 667 70 -8.4760000000000002e-01 9.0166628939245363e+00 1.4048001393702956e+01 1.2392735919176975e+01 5 -4 -4
10028 2885 71 4.2380000000000001e-01 1.1791708051642829e+01 1.7736077071690982e+01 1.1882477593967767e+01 8 -4 -5
4449 1025 71 4.2380000000000001e-01 1.3096510236031110e+01 1.1831960144313538e+01 1.5185981856224512e+01 6 -5 -5
5920 1515 70 -8.4760000000000002e-01 7.1993908829117261e+00 1.5097319499432153e+01 1.5150906519275601e+01 5 -6 -5
4650 1092 71 4.2380000000000001e-01 7.1732911276001774e+00 1.0995794997996619e+01 1.5763656811154677e+01 6 -5 -6
8092 2239 70 -8.4760000000000002e-01 1.1227377281519013e+01 1.4210830572965449e+01 1.6388334403540462e+01 6 -6 -6
8090 2239 71 4.2380000000000001e-01 1.0338521870806341e+01 1.4643251461466321e+01 1.6539834209793966e+01 6 -6 -6
3374 667 71 4.2380000000000001e-01 9.9322953848192306e+00 1.4136883565262069e+01 1.2784809742012818e+01 5 -4 -4
7591 2072 70 -8.4760000000000002e-01 8.7938007614709779e+00 1.5581205299184141e+01 1.7214977898583353e+01 8 -7 -5
7590 2072 71 4.2380000000000001e-01 8.2947250037308233e+00 1.5188104189256704e+01 1.6442709269208713e+01 8 -7 -5
1980 202 71 4.2380000000000001e-01 1.5920536359268535e+01 1.6189755447475086e+01 1.6309569921684840e+01 7 -6 -7
2846 491 71 4.2380000000000001e-01 1.1561776753371891e+01 1.5484700954590062e+01 1.5201727319740808e+01 6 -4 -4
2848 491 70 -8.4760000000000002e-01 1.1853202181069417e+01 1.6355714621275162e+01 1.4806239740514359e+01 6 -4 -4
4649 1092 71 4.2380000000000001e-01 7.2791565984918991e+00 1.1409792624782643e+01 1.7339739504369810e+01 6 -5 -6
2847 491 71 4.2380000000000001e-01 1.2118823188667388e+01 1.6982228112142849e+01 1.5538995358484994e+01 6 -4 -4
4259 962 71 4.2380000000000001e-01 7.7356785860699713e+00 1.2673184562629292e+01 1.2148434640471812e+01 4 -6 -8
5425 1350 70 -8.4760000000000002e-01 1.5564592667487474e+01 1.1999121479054001e+01 1.5735744853091164e+01 5 -5 -8
1981 202 70 -8.4760000000000002e-01 1.5637842212898418e+01 1.5679230146527303e+01 1.7121636803920055e+01 7 -6 -7
2045 224 71 4.2380000000000001e-01 1.4493690490955254e+01 1.3910576489758732e+01 1.0706789856688495e+01 5 -5 -3
2047 224 70 -8.4760000000000002e-01 1.4252116502141327e+01 1.4191878797993045e+01 1.1635506665838385e+01 5 -5 -3
10023 2883 71 4.2380000000000001e-01 1.0575203452853536e+01 1.2367215731076685e+01 9.2558995499994570e+00 8 -5 -5
2369 332 71 4.2380000000000001e-01 8.4748074531475659e+00 9.6136371858844143e+00 8.6340543251370203e+00 7 -4 -6
10024 2883 70 -8.4760000000000002e-01 1.0108817782562708e+01 1.2548498989035467e+01 8.3900901356897517e+00 8 -5 -5
2655 427 71 4.2380000000000001e-01 1.0894777039061054e+01 1.6855386298768764e+01 9.1263184422527441e+00 6 -4 -4
9933 2853 71 4.2380000000000001e-01 1.0373213710861616e+01 8.3719520657559947e+00 7.5220692693810509e+00 5 -4 -6
5424 1350 71 4.2380000000000001e-01 1.5919890698242076e+01 1.1096985674710023e+01 1.5980527034591592e+01 5 -5 -8
5423 1350 71 4.2380000000000001e-01 1.5279593371649000e+01 1.2481153839250517e+01 1.6564252042982822e+01 5 -5 -8
6131 1586 71 4.2380000000000001e-01 1.4768439215635052e+01 1.2614438901089880e+01 1.2610545677094553e+01 7 -4 -7
6133 1586 70 -8.4760000000000002e-01 1.4647667315543703e+01 1.1716555529983756e+01 1.3033894740205351e+01 7 -4 -7
187 14 20 3.2000000000000001e-02 9.4888670695739883e+00 7.4509224707686990e+00 1.6862916565970856e+01 8 -4 -7
4310 979 71 4.2380000000000001e-01 8.2082171958254158e+00 8.4867213092527329e+00 1.0778847446849630e+01 5 -2 -5
4261 962 70 -8.4760000000000002e-01 6.9795647288611891e+00 1.2088831858122779e+01 1.2443099955138099e+01 4 -6 -8
2656 427 70 -8.4760000000000002e-01 1.0934502734221422e+01 1.6973920289448323e+01 1.0118475402609850e+01 6 -4 -4
3512 713 71 4.2380000000000001e-01 9.0901886586017913e+00 1.1131440012535704e+01 1.7618470669101821e+01 5 -4 -6
2046 224 71 4.2380000000000001e-01 1.4713727402066484e+01 1.5051617384109999e+01 1.1854067581389636e+01 5 -5 -3
6777 1801 71 4.2380000000000001e-01 1.5979411557870312e+01 1.3219504264076033e+01 1.4616575688850283e+01 7 -4 -5
6132 1586 71 4.2380000000000001e-01 1.4947320350316469e+01 1.1754503785667744e+01 1.3987190371128257e+01 7 -4 -7
4142 923 71 4.2380000000000001e-01 1.5214399289305119e+01 7.6386754272569544e+00 1.3931936342501881e+01 3 -7 -3
4628 1085 71 4.2380000000000001e-01 1.5486600015959109e+01 1.7336930217852945e+01 1.2454628879012567e+01 7 -5 -6
4651 1092 70 -8.4760000000000002e-01 6.7930679422736597e+00 1.1578147929519748e+01 1.6482197031508925e+01 6 -5 -6
4070 899 71 4.2380000000000001e-01 8.2208548594889717e+00 7.0332428534638876e+00 1.4445749199624533e+01 10 -2 -7
2617 414 70 -8.4760000000000002e-01 7.0391859606231275e+00 1.2440610801952845e+01 8.8108820027762480e+00 4 -5 -5
5184 1270 71 4.2380000000000001e-01 6.6646220779614866e+00 9.1486730399498235e+00 1.4650165413614097e+01 9 -4 -6
3503 710 71 4.2380000000000001e-01 7.7185453950404188e+00 1.7202596831281497e+01 1.1025941170535322e+01 6 -8 -5
10030 2885 70 -8.4760000000000002e-01 1.2290359486713960e+01 1.8132024694862576e+01 1.2653565375529165e+01 8 -4 -5
2802 476 71 4.2380000000000001e-01 1.4165062757540865e+01 1.1304638845404945e+01 7.5609106071014036e+00 6 -4 -4
10029 2885 71 4.2380000000000001e-01 1.2140835169837075e+01 1.7573379943116130e+01 1.3469385531245388e+01 8 -4 -5
9987 2871 71 4.2380000000000001e-01 1.3955849376978502e+01 1.7727989488296998e+01 7.7130230056533549e+00 5 -3 -5
1785 137 71 4.2380000000000001e-01 8.0436256090782603e+00 1.8187648124739120e+01 1.6807444096490617e+01 7 -5 -6
8208 2278 71 4.2380000000000001e-01 7.2556519547779184e+00 1.7126757205450701e+01 1.4918917079551626e+01 7 -3 -7
1786 137 70 -8.4760000000000002e-01 8.4099379398557375e+00 1.8215610629172929e+01 1.7737517923710712e+01 7 -5 -6
4619 1082 71 4.2380000000000001e-01 1.2799080640390152e+01 1.4083825042414741e+01 1.7029258059962597e+01 8 -5 -5
4620 1082 71 4.2380000000000001e-01 1.4299907305964926e+01 1.4685663842935474e+01 1.7257176003663723e+01 8 -5 -5
6854 1827 71 4.2380000000000001e-01 1.1977895810024012e+01 1.7980078617728939e+01 1.7730465945399921e+01 6 -5 -7
2004 210 71 4.2380000000000001e-01 6.7821253370914389e+00 6.7068585912962106e+00 8.2192064729009502e+00 3 -6 -6
5944 1523 70 -8.4760000000000002e-01 1.5758618970467570e+01 7.3697160722587887e+00 7.2835461058131141e+00 9 -6 -7
9185 2604 71 4.2380000000000001e-01 1.5879987558894376e+01 1.0899901731876959e+01 9.1854757770579170e+00 6 -5 -6
8477 2368 71 4.2380000000000001e-01 1.5466449711521788e+01 1.5830659426323136e+01 9.1534735927144713e+00 6 -4 -6
9986 2871 71 4.2380000000000001e-01 1.5439641452319833e+01 1.8282649494973441e+01 7.3163484539175316e+00 5 -3 -5
4071 899 71 4.2380000000000001e-01 8.7831362132729396e+00 7.3236841913135518e+00 1.2940385106045795e+01 10 -2 -7
5641 1422 70 -8.4760000000000002e-01 9.6742709111726839e+00 1.6876713530127727e+01 7.6277730437704863e+00 7 -5 -7
4696 1107 70 -8.4760000000000002e-01 7.0615187131587431e+00 9.7973581606335536e+00 1.0013739992417001e+01 6 -6 -5
2615 414 71 4.2380000000000001e-01 7.6831636080765993e+00 1.3154772451828695e+01 9.0852371101168430e+00 4 -5 -5
4694 1107 71 4.2380000000000001e-01 7.0614676219956376e+00 1.0766873395053445e+01 9.7686979803731298e+00 6 -6 -5
2370 332 71 4.2380000000000001e-01 9.6045020047889800e+00 9.9543278744998389e+00 7.5051798052148317e+00 7 -4 -6
3504 710 71 4.2380000000000001e-01 6.6664418122829572e+00 1.6071624466497880e+01 1.1555673912353210e+01 6 -8 -5
2654 427 71 4.2380000000000001e-01 1.0345527792718958e+01 1.7736179797869937e+01 1.0386939267169019e+01 6 -4 -4
8209 2278 70 -8.4760000000000002e-01 7.5935452330402580e+00 1.8019573416858446e+01 1.5216762392073951e+01 7 -3 -7
5640 1422 71 4.2380000000000001e-01 9.0515784314717358e+00 1.7626219365005504e+01 7.8524927688453365e+00 7 -5 -7
4630 1085 70 -8.4760000000000002e-01 1.4885039740338737e+01 1.6971021871257630e+01 1.1744529970025493e+01 7 -5 -6
4629 1085 71 4.2380000000000001e-01 1.4072710144272463e+01 1.7548852333861291e+01 1.1665552235088063e+01 7 -5 -6
5639 1422 71 4.2380000000000001e-01 9.4210565014294403e+00 1.6487122789618311e+01 6.7422757786899421e+00 7 -5 -7
4350 992 71 4.2380000000000001e-01 1.0321358254001415e+01 1.1796020244934542e+01 7.1680864229712142e+00 4 -4 -7
183 14 64 1.5800000000000000e-01 1.0300239611224875e+01 6.9679844886514211e+00 1.7353507295266304e+01 8 -4 -7
184 14 12 1.6600000000000001e-01 1.1428844554136763e+01 6.7167072105714594e+00 1.6402693136537916e+01 8 -4 -7
4072 899 70 -8.4760000000000002e-01 8.9866832811729154e+00 6.8909663065542732e+00 1.3818638064638403e+01 10 -2 -7
7589 2072 71 4.2380000000000001e-01 8.5489752064760918e+00 1.6545721007495075e+01 1.7313841015191866e+01 8 -7 -5
188 14 20 3.2000000000000001e-02 1.0641460857568404e+01 7.6820862379311619e+00 1.8086023315352175e+01 8 -4 -7
4621 1082 70 -8.4760000000000002e-01 1.3724382302963104e+01 1.3872517363944667e+01 1.7344170394645545e+01 8 -5 -5
6856 1827 70 -8.4760000000000002e-01 1.2676032418357146e+01 1.7502056961255345e+01 1.8263481697983799e+01 6 -5 -7
9934 2853 70 -8.4760000000000002e-01 1.1215307605622215e+01 7.8616283630907722e+00 7.3475656741273898e+00 5 -4 -6
193 14 20 3.2000000000000001e-02 1.2522421139562322e+01 7.9184581708901707e+00 1.5009696652024216e+01 8 -4 -7
9932 2853 71 4.2380000000000001e-01 1.0998804495965466e+01 7.0209835170807118e+00 6.8511317617568679e+00 5 -4 -6
1979 202 71 4.2380000000000001e-01 1.6262884200197149e+01 1.5880083364719598e+01 1.7875947484141570e+01 7 -6 -7
10220 2949 71 4.2380000000000001e-01 1.6196002311573782e+01 7.7219059511614683e+00 8.9409893612558999e+00 4 -3 -3
2271 299 71 4.2380000000000001e-01 1.7465671066825859e+01 1.6483128107958009e+01 1.4372138337222182e+01 6 -4 -6
9899 2842 71 4.2380000000000001e-01 1.6251406102294933e+01 1.0177654568389823e+01 1.2358078296737236e+01 7 -2 -4
6776 1801 71 4.2380000000000001e-01 1.6127392576195376e+01 1.4755820956238479e+01 1.4083217839244007e+01 7 -4 -5
6778 1801 70 -8.4760000000000002e-01 1.6475592352138449e+01 1.3822824830667862e+01 1.3992225370304144e+01 7 -4 -5
2272 299 70 -8.4760000000000002e-01 1.6506490585489100e+01 1.6550335510686494e+01 1.4646839167306741e+01 6 -4 -6
2270 299 71 4.2380000000000001e-01 1.6161874934024176e+01 1.7464462824156652e+01 1.4433258296217968e+01 6 -4 -6
5088 1238 71 4.2380000000000001e-01 1.8554363914524984e+01 1.4654211625565024e+01 1.8272661249267017e+01 7 -6 -4
2327 318 71 4.2380000000000001e-01 1.6436621406983068e+01 9.1378558183361118e+00 1.5633833468310545e+01 4 -3 -7
9901 2842 70 -8.4760000000000002e-01 1.7148109135627095e+01 9.9453641637134673e+00 1.1981290687837625e+01 7 -2 -4
7302 1976 71 4.2380000000000001e-01 1.8080321521070374e+01 1.1502717745553994e+01 1.1759623010733854e+01 6 -6 -4
9900 2842 71 4.2380000000000001e-01 1.7030208932872377e+01 9.4657649981033707e+00 1.1111757193791519e+01 7 -2 -4
7303 1976 70 -8.4760000000000002e-01 1.8008989372640642e+01 1.2496355994756588e+01 1.1846802141491782e+01 6 -6 -4
7301 1976 71 4.2380000000000001e-01 1.7449268311935299e+01 1.2721654073661293e+01 1.2644271872865341e+01 6 -6 -4
4144 923 70 -8.4760000000000002e-01 1.6017596009097243e+01 7.7235722971954406e+00 1.4521573492750701e+01 3 -7 -3
2681 436 71 4.2380000000000001e-01 1.9812501641794363e+01 9.7055864732265089e+00 1.0330316438369211e+01 7 -4 -6
2682 436 71 4.2380000000000001e-01 2.0314085179985497e+01 9.1837650847674350e+00 1.1794131057641074e+01 7 -4 -6
4143 923 71 4.2380000000000001e-01 1.6842823018392707e+01 7.7578564431572614e+00 1.3957809318616690e+01 3 -7 -3
9187 2604 70 -8.4760000000000002e-01 1.6702549200752411e+01 1.1368376163121049e+01 8.8630960403046721e+00 6 -5 -6
8479 2368 70 -8.4760000000000002e-01 1.6002270554588620e+01 1.5013524934627624e+01 8.9408912879665365e+00 6 -4 -6
9186 2604 71 4.2380000000000001e-01 1.6442409432050418e+01 1.2205564494538578e+01 8.3820062058827141e+00 6 -5 -6
8478 2368 71 4.2380000000000001e-01 1.6776989346554075e+01 1.4949960295758256e+01 9.5699972376811111e+00 6 -4 -6
6054 1560 71 4.2380000000000001e-01 2.3748131753660466e+01 9.7408636688342778e+00 1.2664747148187187e+01 5 -7 -5
10265 2964 71 4.2380000000000001e-01 2.0762841068008719e+01 1.3208521041749709e+01 1.3740489378146544e+01 9 -4 -4
10266 2964 71 4.2380000000000001e-01 1.9623459377517623e+01 1.4326008523733080e+01 1.4086420413179045e+01 9 -4 -4
4272 966 71 4.2380000000000001e-01 2.1327787095476168e+01 1.5604664295588179e+01 1.1487667459184173e+01 5 -4 -7
4271 966 71 4.2380000000000001e-01 2.2499115164351277e+01 1.6194716385610505e+01 1.2460532460736259e+01 5 -4 -7
4273 966 70 -8.4760000000000002e-01 2.1606932909049391e+01 1.6383045622827311e+01 1.2049987728357044e+01 5 -4 -7
10267 2964 70 -8.4760000000000002e-01 2.0006370716460857e+01 1.3441145617291383e+01 1.4351752491533800e+01 9 -4 -4
3410 679 71 4.2380000000000001e-01 2.3467168868710136e+01 1.2902366234675005e+01 9.4601652567775822e+00 5 -4 -4
3412 679 70 -8.4760000000000002e-01 2.3295614440156225e+01 1.2063019952271759e+01 9.9759857534088034e+00 5 -4 -4
2467 364 70 -8.4760000000000002e-01 2.1460186453823404e+01 1.0596672850082973e+01 8.3869609530187557e+00 5 -5 -7
2465 364 71 4.2380000000000001e-01 2.2008240302477397e+01 1.1278941096282121e+01 8.8708532791943178e+00 5 -5 -7
6465 1697 71 4.2380000000000001e-01 2.1393839501674989e+01 1.2944753769432092e+01 1.7920832122164484e+01 3 -3 -5
2466 364 71 4.2380000000000001e-01 2.0489481461808158e+01 1.0811397476858971e+01 8.4948051015943307e+00 5 -5 -7
6698 1775 71 4.2380000000000001e-01 1.8113025496812199e+01 1.4120113371516354e+01 1.1170167461514701e+01 8 -4 -5
6699 1775 71 4.2380000000000001e-01 1.8831214054192827e+01 1.5144715066437527e+01 1.0120865616613708e+01 8 -4 -5
6700 1775 70 -8.4760000000000002e-01 1.8035096653882665e+01 1.5004253334143934e+01 1.0709484108549910e+01 8 -4 -5
2436 354 71 4.2380000000000001e-01 2.4212904341583620e+01 7.7689160784642910e+00 1.1691722020323031e+01 6 -3 -8
7726 2117 70 -8.4760000000000002e-01 1.9254326472755167e+01 1.6000875849217103e+01 1.3279695851606533e+01 8 -5 -6
3428 685 71 4.2380000000000001e-01 1.9863052996736275e+01 1.0493648670405197e+01 1.4367752895633433e+01 5 -5 -3
3429 685 71 4.2380000000000001e-01 1.8775584178792947e+01 1.0091956468310112e+01 1.3217669193548200e+01 5 -5 -3
3430 685 70 -8.4760000000000002e-01 1.9745127160180580e+01 1.0249496070704845e+01 1.3405210888396507e+01 5 -5 -3
2437 354 70 -8.4760000000000002e-01 2.3748424907423221e+01 8.6046898370259921e+00 1.1398899617681259e+01 6 -3 -8
2435 354 71 4.2380000000000001e-01 2.3244552981162709e+01 8.4272899452659313e+00 1.0553532097560529e+01 6 -3 -8