ITEM: TIMESTEP
0
ITEM: NUMBER OF ATOMS
10411
ITEM: BOX BOUNDS pp pp pp
6.5715858746583891e+00 5.3428414125313992e+01
6.5715858746583891e+00 5.3428414125313992e+01
6.5715858746583891e+00 5.3428414125313992e+01
ITEM: ATOMS id mol type mass q xu yu zu 
4351 992 70 15.9994 -0.8476 197.245 -173.375 -320.172 
4350 992 71 1.008 0.4238 196.42 -173.865 -320.454 
4349 992 71 1.008 0.4238 197.742 -173.064 -320.982 
7303 1976 70 15.9994 -0.8476 294.611 -267.844 -173.012 
7302 1976 71 1.008 0.4238 295.229 -267.849 -173.798 
7301 1976 71 1.008 0.4238 294.771 -267.02 -172.468 
10223 2950 71 1.008 0.4238 248.906 -222.328 -269.544 
6131 1586 71 1.008 0.4238 342.179 -172.036 -310.888 
8626 2417 70 15.9994 -0.8476 343.45 -267.989 -221.644 
6133 1586 70 15.9994 -0.8476 342.419 -171.759 -311.818 
6132 1586 71 1.008 0.4238 343.413 -171.779 -311.925 
190 14 20 1.008 0.031 385.806 -179.622 -312.092 
184 14 12 12.011 0.166 385.086 -179.287 -311.346 
189 14 67 15.9994 -0.611 383.764 -179.838 -311.634 
593 43 20 1.008 0.032 341.731 -220.195 -223.524 
594 43 20 1.008 0.032 341.84 -220.153 -225.283 
7657 2094 70 15.9994 -0.8476 340.532 -363.949 -266.881 
7655 2094 71 1.008 0.4238 340.967 -363.089 -266.613 
2153 260 71 1.008 0.4238 294.206 -216.745 -267.371 
4715 1114 71 1.008 0.4238 246.026 -267.313 -267.671 
2154 260 71 1.008 0.4238 294.579 -217.186 -265.843 
2155 260 70 15.9994 -0.8476 294.495 -216.413 -266.473 
7656 2094 71 1.008 0.4238 341.226 -364.666 -266.948 
194 14 58 1.008 0.417 386.519 -177.064 -312.113 
191 14 67 15.9994 -0.631 386.183 -177.176 -311.227 
185 14 64 12.011 0.158 384.921 -177.761 -311.266 
589 43 64 12.011 0.158 341.774 -219.53 -224.392 
193 14 20 1.008 0.032 384.366 -177.391 -312.168 
4717 1114 70 15.9994 -0.8476 245.144 -267.129 -268.105 
4716 1114 71 1.008 0.4238 245.221 -267.275 -269.091 
9939 2855 71 1.008 0.4238 432.113 -220.519 -412.408 
4883 1170 71 1.008 0.4238 203 -221.684 -180.298 
2455 360 70 15.9994 -0.8476 243.49 -123.9 -217.632 
4311 979 71 1.008 0.4238 244.721 -83.5918 -222.271 
4310 979 71 1.008 0.4238 245.306 -83.4023 -220.758 
4312 979 70 15.9994 -0.8476 244.628 -83.8788 -221.317 
2454 360 71 1.008 0.4238 243.728 -123.064 -218.127 
3724 783 70 15.9994 -0.8476 244.892 -272.875 -225.271 
3723 783 71 1.008 0.4238 245.408 -273.698 -225.037 
10225 2950 70 15.9994 -0.8476 248.43 -222.829 -270.267 
10224 2950 71 1.008 0.4238 248.872 -223.716 -270.405 
6555 1727 71 1.008 0.4238 386.033 -130.253 -271.125 
6556 1727 70 15.9994 -0.8476 386.166 -129.483 -270.502 
6554 1727 71 1.008 0.4238 387.144 -129.299 -270.402 
9763 2796 70 15.9994 -0.8476 248.047 -227.546 -224.024 
9761 2796 71 1.008 0.4238 248.597 -226.712 -223.985 
4070 899 71 1.008 0.4238 476.222 -85.0383 -314.69 
195 14 21 1.008 0.398 383.534 -179.558 -312.568 
4071 899 71 1.008 0.4238 477.849 -85.1708 -314.647 
9940 2855 70 15.9994 -0.8476 432.544 -220.645 -411.514 
602 43 21 1.008 0.417 339.836 -219.395 -224.413 
9938 2855 71 1.008 0.4238 432.659 -221.621 -411.334 
8380 2335 70 15.9994 -0.8476 382.431 -174.461 -274.325 
590 43 12 12.011 0.166 342.982 -218.633 -224.305 
4261 962 70 15.9994 -0.8476 194.414 -266.811 -362.977 
4072 899 70 15.9994 -0.8476 476.992 -85.4901 -314.241 
8378 2335 71 1.008 0.4238 381.604 -174.612 -273.783 
2453 360 71 1.008 0.4238 243.834 -124.693 -218.134 
10023 2883 71 1.008 0.4238 383.821 -222.513 -223.744 
10024 2883 70 15.9994 -0.8476 382.825 -222.604 -223.752 
592 43 67 15.9994 -0.631 340.597 -218.734 -224.513 
1831 152 70 15.9994 -0.8476 147.979 -125.07 -271.598 
1830 152 71 1.008 0.4238 147.729 -125.181 -270.636 
4259 962 71 1.008 0.4238 194.719 -266.025 -362.439 
10022 2883 71 1.008 0.4238 382.407 -221.706 -223.616 
9563 2730 71 1.008 0.4238 338.152 -267.054 -360.491 
1829 152 71 1.008 0.4238 148.967 -125.186 -271.702 
9933 2853 71 1.008 0.4238 248.412 -175.727 -272.213 
8091 2239 71 1.008 0.4238 291.063 -265.385 -263.062 
9564 2730 71 1.008 0.4238 337.095 -267.506 -359.332 
9565 2730 70 15.9994 -0.8476 337.527 -266.725 -359.784 
596 43 20 1.008 0.031 342.812 -217.865 -223.514 
2489 372 71 1.008 0.4238 247.915 -273.902 -272.557 
7397 2008 71 1.008 0.4238 335.297 -274.363 -170.041 
192 14 20 1.008 0.032 384.258 -177.593 -310.323 
9934 2853 70 15.9994 -0.8476 248.578 -175.748 -273.199 
7472 2033 71 1.008 0.4238 288.451 -175.336 -171.864 
8625 2417 71 1.008 0.4238 343.755 -267.434 -222.418 
8899 2508 70 15.9994 -0.8476 341.382 -179.194 -219.966 
2491 372 70 15.9994 -0.8476 247.876 -273.703 -273.536 
2369 332 71 1.008 0.4238 335.667 -179.651 -273.136 
4696 1107 70 15.9994 -0.8476 287.828 -270.774 -221.559 
4695 1107 71 1.008 0.4238 288.341 -270.496 -222.371 
599 43 20 1.008 0.032 343.467 -218.545 -226.491 
2366 331 71 1.008 0.4238 289.607 -263.851 -178.773 
591 43 64 12.011 0.158 343.263 -217.914 -225.625 
183 14 64 12.011 0.158 385.539 -179.732 -309.979 
2490 372 71 1.008 0.4238 248.677 -273.163 -273.798 
3722 783 71 1.008 0.4238 244.153 -273.112 -225.902 
8897 2508 71 1.008 0.4238 340.943 -179.615 -220.76 
4230 952 71 1.008 0.4238 288.354 -177.193 -225.023 
2927 518 71 1.008 0.4238 335.77 -171.809 -220.041 
7473 2033 71 1.008 0.4238 288.754 -174.647 -170.415 
7474 2033 70 15.9994 -0.8476 289.166 -174.977 -171.264 
2371 332 70 15.9994 -0.8476 336.266 -180.451 -273.163 
8898 2508 71 1.008 0.4238 341.274 -179.791 -219.171 
9932 2853 71 1.008 0.4238 248.94 -176.644 -273.457 
9901 2842 70 15.9994 -0.8476 343.29 -84.662 -176.78 
9899 2842 71 1.008 0.4238 343.568 -85.028 -175.892 
9140 2589 71 1.008 0.4238 343.013 -132.251 -127.203 
10028 2885 71 1.008 0.4238 390.493 -169.458 -219.062 
600 43 58 1.008 0.417 343.877 -216.067 -225.753 
10222 2949 70 15.9994 -0.8476 203.238 -131.399 -133.2 
4231 952 70 15.9994 -0.8476 288.134 -177.926 -225.667 
2929 518 70 15.9994 -0.8476 334.928 -171.28 -220.143 
6728 1785 71 1.008 0.4238 335.72 -264.669 -170.075 
6730 1785 70 15.9994 -0.8476 334.9 -264.945 -169.573 
4650 1092 71 1.008 0.4238 287.812 -219.753 -262.944 
2236 287 70 15.9994 -0.8476 339.971 -75.7802 -272.644 
2234 287 71 1.008 0.4238 338.979 -75.8997 -272.597 
2235 287 71 1.008 0.4238 340.422 -76.6387 -272.4 
598 43 20 1.008 0.032 342.301 -217.488 -225.95 
7052 1893 71 1.008 0.4238 339.489 -310.303 -315.91 
7054 1893 70 15.9994 -0.8476 340.419 -310.671 -315.91 
7053 1893 71 1.008 0.4238 340.477 -311.43 -316.559 
2368 331 70 15.9994 -0.8476 290.394 -263.248 -178.65 
2654 427 71 1.008 0.4238 291.05 -169.551 -176.571 
2004 210 71 1.008 0.4238 148.659 -274.551 -271.259 
9762 2796 71 1.008 0.4238 247.293 -227.479 -223.37 
3571 732 70 15.9994 -0.8476 388.012 -180.799 -264.433 
3570 732 71 1.008 0.4238 388.713 -180.53 -263.772 
8624 2417 71 1.008 0.4238 344.025 -268.804 -221.571 
10058 2895 71 1.008 0.4238 300.001 -227.077 -227.172 
9142 2589 70 15.9994 -0.8476 343.991 -132.197 -127.404 
9141 2589 71 1.008 0.4238 344.513 -132.351 -126.565 
9900 2842 71 1.008 0.4238 344.07 -84.6744 -177.405 
4884 1170 71 1.008 0.4238 204.483 -221.001 -180.262 
9185 2604 71 1.008 0.4238 298.02 -224.137 -268.199 
2327 318 71 1.008 0.4238 204.644 -128.856 -313.646 
4143 923 71 1.008 0.4238 157.815 -318.253 -123.839 
4144 923 70 15.9994 -0.8476 157.514 -317.4 -123.411 
2328 318 71 1.008 0.4238 204.62 -128.602 -312.033 
4142 923 71 1.008 0.4238 156.743 -317.587 -122.803 
595 43 67 15.9994 -0.611 344.059 -219.516 -224.053 
601 43 21 1.008 0.398 344.979 -219.329 -224.475 
9187 2604 70 15.9994 -0.8476 298.264 -223.199 -268.445 
8479 2368 70 15.9994 -0.8476 297.886 -170.731 -268.426 
8477 2368 71 1.008 0.4238 297.619 -171.443 -269.076 
9186 2604 71 1.008 0.4238 298.947 -223.213 -269.175 
2329 318 70 15.9994 -0.8476 204.797 -128.182 -312.923 
7667 2098 71 1.008 0.4238 300.18 -220.224 -319.189 
7669 2098 70 15.9994 -0.8476 299.607 -219.845 -319.916 
8478 2368 71 1.008 0.4238 298 -171.135 -267.518 
3272 633 71 1.008 0.4238 347.933 -266.718 -223.014 
3274 633 70 15.9994 -0.8476 347.396 -267.297 -223.627 
5312 1313 71 1.008 0.4238 252.657 -225.813 -265.755 
7668 2098 71 1.008 0.4238 300.073 -219.065 -320.334 
6053 1560 71 1.008 0.4238 256.494 -316.453 -221.841 
6054 1560 71 1.008 0.4238 255.629 -316.09 -220.504 
6055 1560 70 15.9994 -0.8476 255.822 -316.796 -221.185 
10265 2964 71 1.008 0.4238 441.785 -173.301 -173.532 
10266 2964 71 1.008 0.4238 440.639 -174.399 -173.148 
2047 224 70 15.9994 -0.8476 251.273 -219.057 -125.568 
4272 966 71 1.008 0.4238 255.921 -171.679 -314.99 
4271 966 71 1.008 0.4238 254.543 -171.215 -315.733 
4273 966 70 15.9994 -0.8476 255.142 -171.99 -315.534 
10267 2964 70 15.9994 -0.8476 441.623 -174.242 -173.237 
2046 224 71 1.008 0.4238 251.744 -218.793 -124.725 
8320 2315 70 15.9994 -0.8476 346.683 -170.234 -226.785 
8318 2315 71 1.008 0.4238 345.843 -170.248 -226.241 
3273 633 71 1.008 0.4238 347.453 -268.248 -223.324 
2948 525 71 1.008 0.4238 301.327 -223.406 -226.269 
8319 2315 71 1.008 0.4238 346.497 -169.817 -227.674 
2949 525 71 1.008 0.4238 302.93 -223.55 -225.992 
2950 525 70 15.9994 -0.8476 302.022 -223.591 -225.575 
707 51 67 15.9994 -0.611 259.351 -273.936 -225.377 
3411 679 71 1.008 0.4238 258.205 -176.333 -176.987 
3410 679 71 1.008 0.4238 257.123 -175.14 -177.259 
3412 679 70 15.9994 -0.8476 257.476 -175.783 -176.579 
7333 1986 70 15.9994 -0.8476 351.082 -220.734 -310.555 
1860 162 71 1.008 0.4238 258.702 -364.04 -272.992 
7421 2016 71 1.008 0.4238 304.845 -227.053 -79.6464 
2467 364 70 15.9994 -0.8476 256.724 -220.29 -318.414 
2465 364 71 1.008 0.4238 255.813 -220.218 -318.009 
6465 1697 71 1.008 0.4238 161.473 -128.019 -218.738 
2466 364 71 1.008 0.4238 257.183 -219.403 -318.363 
6698 1775 71 1.008 0.4238 395.125 -176.366 -222.488 
705 51 20 1.008 0.032 256.849 -273.19 -226.093 
6699 1775 71 1.008 0.4238 394.862 -176.55 -224.089 
6700 1775 70 15.9994 -0.8476 394.431 -176.355 -223.208 
7331 1986 71 1.008 0.4238 350.159 -221.076 -310.374 
2436 354 71 1.008 0.4238 303.389 -132.616 -362.079 
8196 2274 71 1.008 0.4238 258.969 -132.904 -265.082 
8197 2274 70 15.9994 -0.8476 258.06 -133.165 -265.406 
7726 2117 70 15.9994 -0.8476 395.675 -216.846 -271.787 
3428 685 71 1.008 0.4238 254.412 -224.199 -125.233 
3429 685 71 1.008 0.4238 254.486 -225.437 -126.295 
3430 685 70 15.9994 -0.8476 254.188 -225.162 -125.381 
2437 354 70 15.9994 -0.8476 302.505 -132.155 -362.158 
2435 354 71 1.008 0.4238 302.648 -131.166 -362.2 
7725 2117 71 1.008 0.4238 395.008 -216.721 -272.522 
5995 1540 70 15.9994 -0.8476 398.032 -218.698 -360.796 
7912 2179 70 15.9994 -0.8476 257.946 -128.245 -219.332 
2045 224 71 1.008 0.4238 251.264 -220.054 -125.646 
5993 1540 71 1.008 0.4238 398.595 -219.345 -360.282 
3420 682 71 1.008 0.4238 349.576 -171.33 -359.526 
3421 682 70 15.9994 -0.8476 348.752 -171.071 -359.022 
2201 276 71 1.008 0.4238 165.438 -85.6788 -364.247 
2203 276 70 15.9994 -0.8476 165.496 -85.065 -363.46 
3419 682 71 1.008 0.4238 348.557 -170.102 -359.178 
5994 1540 71 1.008 0.4238 398.564 -218.322 -361.554 
3210 612 71 1.008 0.4238 259.08 -173.099 -222.251 
7911 2179 71 1.008 0.4238 257.725 -129.207 -219.492 
7910 2179 71 1.008 0.4238 258.839 -128.037 -219.731 
2202 276 71 1.008 0.4238 165.26 -85.567 -362.628 
8961 2529 71 1.008 0.4238 352.16 -217.091 -272.252 
8962 2529 70 15.9994 -0.8476 351.484 -217.782 -271.994 
8195 2274 71 1.008 0.4238 257.365 -132.729 -264.834 
8816 2481 71 1.008 0.4238 346.512 -177.997 -224.215 
5314 1313 70 15.9994 -0.8476 251.711 -226.133 -265.701 
8818 2481 70 15.9994 -0.8476 345.74 -178.33 -224.756 
8817 2481 71 1.008 0.4238 346.066 -178.993 -225.43 
8960 2529 71 1.008 0.4238 350.564 -217.427 -272.16 
7423 2016 70 15.9994 -0.8476 304.795 -227.314 -80.6103 
10221 2949 71 1.008 0.4238 203.879 -131.471 -132.437 
4560 1062 71 1.008 0.4238 305.067 -30.5267 -176.518 
4561 1062 70 15.9994 -0.8476 305.538 -30.8756 -175.708 
7400 2009 71 1.008 0.4238 299.779 -169.328 -222.155 
7402 2009 70 15.9994 -0.8476 300.609 -169.562 -222.66 
5313 1313 71 1.008 0.4238 251.7 -227.096 -265.432 
7724 2117 71 1.008 0.4238 395.195 -216.978 -270.92 
5010 1212 71 1.008 0.4238 298.351 -180.365 -175.045 
6466 1697 70 15.9994 -0.8476 161.506 -128.705 -218.011 
7791 2139 71 1.008 0.4238 300.694 -218.679 -217.543 
7792 2139 70 15.9994 -0.8476 299.974 -219.088 -216.981 
706 51 20 1.008 0.032 256.945 -273.551 -224.408 
701 51 64 12.011 0.158 256.875 -274.005 -225.406 
3209 612 71 1.008 0.4238 258.665 -174.678 -222.293 
3211 612 70 15.9994 -0.8476 259.312 -174.014 -221.919 
7332 1986 71 1.008 0.4238 351.428 -221.14 -311.401 
10164 2930 71 1.008 0.4238 353.106 -123.685 -171.242 
597 43 67 15.9994 -0.631 344.249 -216.872 -225.461 
5603 1410 71 1.008 0.4238 304.668 -169.276 -311.551 
3450 692 71 1.008 0.4238 305.563 -176.703 -170.281 
3449 692 71 1.008 0.4238 303.984 -176.397 -170 
3451 692 70 15.9994 -0.8476 304.82 -176.79 -169.617 
7790 2139 71 1.008 0.4238 300.191 -220.048 -216.808 
6777 1801 71 1.008 0.4238 344.797 -169.963 -216.94 
6776 1801 71 1.008 0.4238 345.985 -170.912 -216.344 
3312 646 71 1.008 0.4238 396.569 -263.833 -170.461 
1508 108 20 1.008 0.032 259.527 -219.954 -179.522 
1861 162 70 15.9994 -0.8476 257.753 -363.931 -273.289 
4885 1170 70 15.9994 -0.8476 203.734 -221.297 -180.855 
5604 1410 71 1.008 0.4238 305.026 -169.278 -313.144 
3900 842 71 1.008 0.4238 209.187 -267.839 -367.494 
5009 1212 71 1.008 0.4238 299.875 -180.613 -175.577 
2977 534 70 15.9994 -0.8476 208.798 -179.33 -216.876 
10060 2895 70 15.9994 -0.8476 299.186 -227.211 -226.607 
2976 534 71 1.008 0.4238 208.378 -179.06 -217.743 
2682 436 71 1.008 0.4238 348.552 -179.749 -269.831 
6464 1697 71 1.008 0.4238 160.916 -128.418 -217.256 
3293 640 71 1.008 0.4238 299.653 -221.899 -169.16 
6778 1801 70 15.9994 -0.8476 345.176 -170.373 -216.11 
3313 646 70 15.9994 -0.8476 396.985 -263.082 -169.947 
10059 2895 71 1.008 0.4238 298.39 -227.345 -227.198 
2683 436 70 15.9994 -0.8476 347.953 -180.361 -270.347 
1859 162 71 1.008 0.4238 257.734 -363.508 -274.195 
2975 534 71 1.008 0.4238 208.517 -178.693 -216.158 
2681 436 71 1.008 0.4238 348.466 -180.773 -271.1 
713 51 21 1.008 0.398 260.031 -274.121 -226.104 
6279 1635 71 1.008 0.4238 259.903 -177.467 -270.725 
4559 1062 71 1.008 0.4238 306.516 -30.6821 -175.782 
10163 2930 71 1.008 0.4238 353.34 -124.518 -169.857 
10165 2930 70 15.9994 -0.8476 353.526 -124.499 -170.839 
4652 1093 71 1.008 0.4238 261.741 -274.03 -269.817 
1507 108 67 15.9994 -0.631 260.458 -221.865 -179.541 
2720 449 71 1.008 0.4238 216.802 -180.441 -216.477 
1509 108 20 1.008 0.032 260.512 -220.356 -178.168 
1501 108 64 12.011 0.158 260.433 -220.467 -179.269 
2632 419 70 15.9994 -0.8476 213.586 -176.619 -123.844 
2631 419 71 1.008 0.4238 213.705 -175.957 -124.584 
5233 1286 70 15.9994 -0.8476 260.826 -226.186 -217.661 
2373 333 71 1.008 0.4238 357.281 -226.61 -128.201 
5231 1286 71 1.008 0.4238 260.781 -226.5 -216.712 
5232 1286 71 1.008 0.4238 260.732 -225.191 -217.687 
6280 1635 70 15.9994 -0.8476 260.307 -176.628 -271.088 
1510 108 58 1.008 0.417 260.725 -222.328 -178.709 
7989 2205 71 1.008 0.4238 260.356 -268.226 -127.125 
1505 108 67 15.9994 -0.611 262.992 -220.233 -179.446 
1500 108 12 12.011 0.166 261.638 -219.762 -179.834 
1511 108 21 1.008 0.398 263.087 -219.945 -178.475 
6278 1635 71 1.008 0.4238 261.235 -176.523 -270.731 
1502 108 67 15.9994 -0.631 260.739 -217.671 -180.55 
1499 108 64 12.011 0.158 261.515 -218.318 -179.494 
1503 108 20 1.008 0.032 262.443 -217.811 -179.461 
1504 108 20 1.008 0.032 261.09 -218.15 -178.483 
6970 1865 70 15.9994 -0.8476 122.359 -126.14 -270.538 
6969 1865 71 1.008 0.4238 121.565 -125.739 -270.081 
6968 1865 71 1.008 0.4238 122.301 -127.137 -270.494 
7990 2205 70 15.9994 -0.8476 260.887 -268.507 -126.326 
7988 2205 71 1.008 0.4238 261.361 -267.712 -125.945 
10184 2937 71 1.008 0.4238 219.013 -218.906 -270.696 
10186 2937 70 15.9994 -0.8476 218.318 -218.389 -270.195 
10185 2937 71 1.008 0.4238 217.433 -218.846 -270.284 
427 31 67 15.9994 -0.611 219.293 -177.066 -271.112 
428 31 20 1.008 0.031 218.177 -176.962 -269.388 
422 31 12 12.011 0.166 218.331 -176.4 -270.342 
425 31 20 1.008 0.032 216.587 -177.299 -271.349 
424 31 67 15.9994 -0.631 215.988 -175.81 -270.092 
426 31 20 1.008 0.032 217.035 -175.695 -271.738 
421 31 64 12.011 0.158 216.98 -176.363 -270.927 
431 31 20 1.008 0.032 218.507 -174.349 -270.763 
434 31 21 1.008 0.417 216.066 -176.264 -269.203 
423 31 64 12.011 0.158 218.855 -175.002 -269.972 
430 31 20 1.008 0.032 218.197 -174.622 -269.24 
429 31 67 15.9994 -0.631 220.167 -174.825 -269.493 
2162 263 71 1.008 0.4238 173.965 -269.594 -318.501 
432 31 58 1.008 0.417 220.546 -175.589 -268.956 
579 42 20 1.008 0.032 265.205 -173.079 -314.2 
587 42 21 1.008 0.398 264.749 -171.133 -314.821 
581 42 67 15.9994 -0.611 263.907 -170.988 -314.284 
582 42 20 1.008 0.031 264.882 -171.437 -312.496 
576 42 12 12.011 0.166 264.066 -171.819 -313.092 
575 42 64 12.011 0.158 264.359 -173.22 -313.505 
580 42 20 1.008 0.032 263.484 -173.541 -314.023 
578 42 67 15.9994 -0.631 264.593 -174.208 -312.455 
577 42 64 12.011 0.158 262.802 -171.793 -312.141 
588 42 21 1.008 0.417 264.888 -175.011 -312.891 
583 42 67 15.9994 -0.631 261.62 -172.425 -312.701 
4134 920 71 1.008 0.4238 314.789 -224.114 -221.74 
4133 920 71 1.008 0.4238 315.709 -223.561 -220.509 
8831 2486 71 1.008 0.4238 406.333 -220.554 -264.149 
8833 2486 70 15.9994 -0.8476 407.129 -220.195 -263.661 
4135 920 70 15.9994 -0.8476 314.971 -223.331 -221.144 
8277 2301 71 1.008 0.4238 359.541 -169.718 -270.705 
8846 2491 71 1.008 0.4238 309.086 -129.452 -220.439 
8832 2486 71 1.008 0.4238 407.708 -219.685 -264.297 
7231 1952 70 15.9994 -0.8476 220.995 -319.224 -222.672 
7230 1952 71 1.008 0.4238 220.995 -320.222 -222.727 
3111 579 71 1.008 0.4238 402.89 -264.227 -222.198 
585 42 20 1.008 0.032 263.135 -172.245 -311.125 
8847 2491 71 1.008 0.4238 310.666 -129.832 -220.28 
8848 2491 70 15.9994 -0.8476 309.844 -129.971 -220.833 
7623 2083 71 1.008 0.4238 357.281 -222.484 -170.738 
5786 1471 71 1.008 0.4238 314.128 -220.8 -272.12 
7965 2197 71 1.008 0.4238 314.544 -174.924 -180.264 
4416 1014 71 1.008 0.4238 408.168 -125.932 -222.738 
7622 2083 71 1.008 0.4238 357.947 -223.846 -170.132 
586 42 58 1.008 0.417 260.825 -172.11 -312.085 
584 42 20 1.008 0.032 262.521 -170.794 -311.893 
3353 660 71 1.008 0.4238 361.259 -123.384 -226.818 
3577 734 70 15.9994 -0.8476 358.908 -270.3 -219.719 
3575 734 71 1.008 0.4238 359.761 -270.276 -220.239 
3576 734 71 1.008 0.4238 359.016 -270.906 -218.93 
5966 1531 71 1.008 0.4238 355.905 -227.276 -171.068 
5968 1531 70 15.9994 -0.8476 356.735 -227.601 -171.521 
3355 660 70 15.9994 -0.8476 360.731 -124.166 -227.148 
3107 578 71 1.008 0.4238 358.989 -178.648 -263.645 
5967 1531 71 1.008 0.4238 357.067 -226.899 -172.151 
4548 1058 71 1.008 0.4238 220.953 -225.6 -219.2 
4549 1058 70 15.9994 -0.8476 220.443 -226.422 -219.454 
4415 1014 71 1.008 0.4238 408.57 -124.382 -222.418 
4417 1014 70 15.9994 -0.8476 408.339 -125.266 -222.012 
3109 578 70 15.9994 -0.8476 359.393 -177.919 -264.197 
5787 1471 71 1.008 0.4238 313.867 -219.335 -272.793 
5788 1471 70 15.9994 -0.8476 313.708 -219.903 -271.985 
3112 579 70 15.9994 -0.8476 402.049 -264.237 -222.739 
3110 579 71 1.008 0.4238 401.958 -263.37 -223.229 
7624 2083 70 15.9994 -0.8476 357.159 -223.233 -170.086 
4547 1058 71 1.008 0.4238 220.906 -227.229 -219.088 
8390 2339 71 1.008 0.4238 314.33 -170.422 -450.679 
3325 650 70 15.9994 -0.8476 171.234 -180.199 -314.376 
3323 650 71 1.008 0.4238 172.02 -179.728 -313.975 
2555 394 71 1.008 0.4238 220.779 -219.157 -220.048 
2557 394 70 15.9994 -0.8476 220.938 -219.344 -219.079 
6136 1587 70 15.9994 -0.8476 358.83 -84.0289 -273.652 
433 31 21 1.008 0.398 218.841 -177.275 -272.022 
7229 1952 71 1.008 0.4238 220.243 -318.86 -223.221 
2630 419 71 1.008 0.4238 214.175 -176.369 -123.075 
7358 1995 71 1.008 0.4238 315.326 -36.8876 -170.532 
6135 1587 71 1.008 0.4238 358.049 -84.3199 -274.204 
2372 333 71 1.008 0.4238 356.461 -225.231 -127.897 
2374 333 70 15.9994 -0.8476 356.513 -226.036 -128.487 
6134 1587 71 1.008 0.4238 359.656 -84.4946 -273.971 
2164 263 70 15.9994 -0.8476 174.445 -269.067 -319.202 
3866 831 71 1.008 0.4238 268.965 -220.973 -312.923 
2556 394 71 1.008 0.4238 221.711 -218.797 -218.756 
8868 2498 71 1.008 0.4238 221.468 -173.8 -263.126 
8391 2339 71 1.008 0.4238 315.274 -170.212 -451.995 
6467 1698 71 1.008 0.4238 315.674 -123.441 -318.177 
8392 2339 70 15.9994 -0.8476 314.386 -170.002 -451.585 
1512 108 21 1.008 0.417 261.292 -216.844 -180.828 
3108 578 71 1.008 0.4238 360.298 -177.691 -263.839 
7360 1995 70 15.9994 -0.8476 315.572 -36.6629 -171.475 
7467 2031 71 1.008 0.4238 358.406 -314.401 -227.68 
9228 2618 71 1.008 0.4238 402.559 -273.166 -180.151 
4062 896 71 1.008 0.4238 123.209 -309.939 -357.829 
7999 2208 70 15.9994 -0.8476 313.772 -179.507 -321.415 
6663 1763 71 1.008 0.4238 260.679 -222.844 -274.404 
9229 2618 70 15.9994 -0.8476 401.991 -273.989 -180.175 
7997 2208 71 1.008 0.4238 313.548 -180.237 -320.77 
7359 1995 71 1.008 0.4238 315.85 -35.7037 -171.527 
3868 831 70 15.9994 -0.8476 269.637 -221.588 -312.51 
2163 263 71 1.008 0.4238 175.432 -269.166 -319.077 
6469 1698 70 15.9994 -0.8476 315.938 -123.244 -317.233 
6966 1864 71 1.008 0.4238 274.5 -170.396 -320.743 
5678 1435 71 1.008 0.4238 323.574 -180.294 -267.708 
3867 831 71 1.008 0.4238 270.476 -221.579 -313.054 
7852 2159 70 15.9994 -0.8476 364.939 -179.088 -177.675 
5408 1345 71 1.008 0.4238 410.5 -272.64 -217.095 
6310 1645 70 15.9994 -0.8476 270.01 -264.583 -265.022 
4611 1079 71 1.008 0.4238 227.971 -178.773 -271.758 
7239 1955 71 1.008 0.4238 275.61 -176.137 -274.493 
5351 1326 71 1.008 0.4238 271.242 -171.424 -317.755 
7395 2007 71 1.008 0.4238 365.619 -269.569 -272.171 
5353 1326 70 15.9994 -0.8476 271.676 -172.199 -317.294 
5352 1326 71 1.008 0.4238 271.938 -172.886 -317.972 
5078 1235 71 1.008 0.4238 272.436 -125.295 -320.869 
5079 1235 71 1.008 0.4238 273.769 -125.686 -320.009 
6840 1822 71 1.008 0.4238 273.044 -131.403 -226.809 
4784 1137 71 1.008 0.4238 319.178 -178.601 -312.944 
4786 1137 70 15.9994 -0.8476 319.815 -178.741 -312.186 
4785 1137 71 1.008 0.4238 320.576 -178.098 -312.266 
9868 2831 70 15.9994 -0.8476 321.004 -175.906 -267.172 
9866 2831 71 1.008 0.4238 321.673 -176.132 -266.465 
4612 1079 70 15.9994 -0.8476 227.204 -179.038 -272.342 
9807 2811 71 1.008 0.4238 321.081 -269.135 -319.515 
9808 2811 70 15.9994 -0.8476 320.372 -268.685 -318.972 
9806 2811 71 1.008 0.4238 320.03 -267.885 -319.465 
5538 1388 71 1.008 0.4238 229.892 -172.288 -270.85 
5485 1370 70 15.9994 -0.8476 365.509 -223.063 -269.232 
5539 1388 70 15.9994 -0.8476 229.407 -171.687 -270.214 
5537 1388 71 1.008 0.4238 228.782 -172.231 -269.653 
5484 1370 71 1.008 0.4238 366.506 -223.09 -269.305 
5080 1235 70 15.9994 -0.8476 272.77 -125.737 -320.036 
4764 1130 71 1.008 0.4238 230.278 -131.892 -271.241 
4765 1130 70 15.9994 -0.8476 229.391 -131.882 -270.779 
5596 1407 70 15.9994 -0.8476 277.302 -173.428 -131.557 
5595 1407 71 1.008 0.4238 277.166 -174.413 -131.668 
5483 1370 71 1.008 0.4238 365.123 -222.698 -270.08 
6608 1745 71 1.008 0.4238 322.274 -223.701 -317.254 
6785 1804 71 1.008 0.4238 368.727 -221.242 -267.638 
7396 2007 70 15.9994 -0.8476 364.698 -269.903 -271.972 
8549 2392 71 1.008 0.4238 363 -266.399 -315.233 
7394 2007 71 1.008 0.4238 364.736 -270.88 -271.763 
2912 513 71 1.008 0.4238 230.738 -177.908 -267.719 
2914 513 70 15.9994 -0.8476 231.012 -177.111 -267.181 
6610 1745 70 15.9994 -0.8476 321.696 -223.015 -316.813 
8551 2392 70 15.9994 -0.8476 363.966 -266.358 -314.979 
8550 2392 71 1.008 0.4238 364.51 -266.103 -315.779 
4276 967 70 15.9994 -0.8476 275.73 -130.409 -218.646 
4275 967 71 1.008 0.4238 276.027 -130.785 -217.768 
9867 2831 71 1.008 0.4238 321.191 -176.445 -267.993 
4046 891 71 1.008 0.4238 366.62 -221.68 -267.259 
4048 891 70 15.9994 -0.8476 366.044 -221.047 -266.742 
4047 891 71 1.008 0.4238 365.334 -220.677 -267.342 
6609 1745 71 1.008 0.4238 321.192 -222.505 -317.51 
4274 967 71 1.008 0.4238 276.517 -130.329 -219.257 
7238 1955 71 1.008 0.4238 276.828 -176.177 -273.406 
7240 1955 70 15.9994 -0.8476 275.886 -175.881 -273.567 
5864 1497 71 1.008 0.4238 272.718 -170.214 -222.432 
7034 1887 71 1.008 0.4238 227.3 -218.966 -220.879 
7836 2154 71 1.008 0.4238 271.282 -177.232 -173.999 
7036 1887 70 15.9994 -0.8476 226.673 -218.582 -220.201 
6309 1645 71 1.008 0.4238 270.779 -264.889 -264.462 
7851 2159 71 1.008 0.4238 365.91 -179.215 -177.877 
9821 2816 71 1.008 0.4238 272.758 -174.207 -311.889 
10251 2959 71 1.008 0.4238 229.497 -268.268 -216.513 
6787 1804 70 15.9994 -0.8476 369.164 -220.412 -267.985 
5409 1345 71 1.008 0.4238 411.935 -273.328 -217.459 
5410 1345 70 15.9994 -0.8476 410.974 -273.507 -217.25 
2048 225 71 1.008 0.4238 319.711 -123.894 -216.311 
2049 225 71 1.008 0.4238 319.235 -125.413 -216.677 
2050 225 70 15.9994 -0.8476 318.923 -124.477 -216.514 
9822 2816 71 1.008 0.4238 273.889 -174.625 -310.788 
10250 2959 71 1.008 0.4238 228.897 -269.733 -216.113 
9823 2816 70 15.9994 -0.8476 273.116 -174.019 -310.974 
5594 1407 71 1.008 0.4238 278.281 -173.225 -131.553 
10393 3006 70 15.9994 -0.8476 183.953 -173.921 -217.568 
10392 3006 71 1.008 0.4238 183.652 -173.593 -218.463 
6786 1804 71 1.008 0.4238 369.963 -220.196 -267.423 
7366 1997 70 15.9994 -0.8476 371.359 -219.305 -219.811 
4748 1125 71 1.008 0.4238 324.092 -409.398 -269.659 
7365 1997 71 1.008 0.4238 371.229 -218.318 -219.9 
5388 1338 71 1.008 0.4238 275.951 -78.7639 -319.782 
7035 1887 71 1.008 0.4238 226.475 -219.27 -219.504 
6308 1645 71 1.008 0.4238 270.353 -264.073 -265.81 
9274 2633 70 15.9994 -0.8476 418.158 -216.522 -220.016 
7837 2154 70 15.9994 -0.8476 271.053 -178.078 -173.517 
6333 1653 71 1.008 0.4238 276.721 -263.969 -269.652 
9275 2634 71 1.008 0.4238 274.973 -226.928 -266.374 
5389 1338 70 15.9994 -0.8476 275.369 -78.5949 -320.577 
8867 2498 71 1.008 0.4238 222.76 -174.405 -263.921 
6223 1616 70 15.9994 -0.8476 369.632 -227.636 -216.235 
4763 1130 71 1.008 0.4238 229.483 -132.293 -269.872 
4749 1125 71 1.008 0.4238 324.878 -409.982 -268.353 
4750 1125 70 15.9994 -0.8476 324.947 -409.371 -269.141 
5387 1338 71 1.008 0.4238 275.582 -79.2591 -321.293 
7835 2154 71 1.008 0.4238 270.506 -178.664 -174.115 
6468 1698 71 1.008 0.4238 316.479 -122.403 -317.206 
5324 1317 71 1.008 0.4238 410.719 -226.386 -272.585 
5866 1497 70 15.9994 -0.8476 273.231 -169.358 -222.485 
5865 1497 71 1.008 0.4238 273.709 -169.309 -223.362 
3315 647 71 1.008 0.4238 272.267 -217.367 -219.997 
3314 647 71 1.008 0.4238 271.015 -217.302 -221.044 
3316 647 70 15.9994 -0.8476 271.435 -216.87 -220.246 
6967 1864 70 15.9994 -0.8476 273.88 -169.687 -320.408 
6965 1864 71 1.008 0.4238 274.234 -169.312 -319.551 
6334 1653 70 15.9994 -0.8476 277.107 -263.048 -269.698 
9272 2633 71 1.008 0.4238 417.209 -216.215 -220.081 
3950 859 71 1.008 0.4238 227.325 -216.148 -216.689 
4610 1079 71 1.008 0.4238 227.199 -180.032 -272.456 
5325 1317 71 1.008 0.4238 410.998 -227.046 -274.052 
5679 1435 71 1.008 0.4238 324.555 -180.779 -268.92 
5680 1435 70 15.9994 -0.8476 324.258 -179.996 -268.374 
5316 1314 71 1.008 0.4238 271.05 -227.399 -172.839 
8869 2498 70 15.9994 -0.8476 222.418 -174.098 -263.032 
4337 988 71 1.008 0.4238 324.262 -180.737 -216.924 
4491 1039 71 1.008 0.4238 128.493 -84.0256 -227.248 
9277 2634 70 15.9994 -0.8476 275.565 -227.633 -266.764 
7850 2159 71 1.008 0.4238 364.639 -179.787 -177.026 
5326 1317 70 15.9994 -0.8476 410.32 -226.585 -273.48 
3198 608 71 1.008 0.4238 417.758 -169.284 -133.931 
2617 414 70 15.9994 -0.8476 192.847 -220.629 -225.669 
2615 414 71 1.008 0.4238 192.08 -220.702 -225.031 
2616 414 71 1.008 0.4238 193.574 -220.081 -225.254 
4260 962 71 1.008 0.4238 193.494 -267.076 -362.687 
10197 2941 71 1.008 0.4238 332.373 -39.6998 -82.1425 
6727 1784 70 15.9994 -0.8476 285.733 -224.364 -274.119 
3408 678 71 1.008 0.4238 325.479 -180.404 -224.472 
2913 513 71 1.008 0.4238 231.93 -177.256 -266.813 
4339 988 70 15.9994 -0.8476 325.244 -180.593 -217.04 
10391 3006 71 1.008 0.4238 184.898 -173.636 -217.409 
7364 1997 71 1.008 0.4238 372.276 -219.551 -220.125 
4694 1107 71 1.008 0.4238 287.604 -269.967 -221.013 
6478 1701 70 15.9994 -0.8476 278.682 -129.692 -226.46 
7761 2129 71 1.008 0.4238 279.771 -132.989 -75.5062 
6540 1722 71 1.008 0.4238 233.274 -85.3382 -172.537 
3409 678 70 15.9994 -0.8476 325.469 -179.61 -225.08 
970 70 67 15.9994 -0.631 285.337 -169.648 -226.156 
6541 1722 70 15.9994 -0.8476 233.304 -84.3434 -172.634 
6539 1722 71 1.008 0.4238 234.241 -84.0556 -172.834 
971 70 20 1.008 0.032 285.544 -171.663 -225.726 
6233 1620 71 1.008 0.4238 280.076 -129.985 -171.511 
2424 350 71 1.008 0.4238 378.2 -176.593 -311.428 
1586 114 67 15.9994 -0.631 326.236 -169.799 -224.587 
6235 1620 70 15.9994 -0.8476 279.82 -129.114 -171.091 
2423 350 71 1.008 0.4238 378.03 -175.063 -311.972 
3407 678 71 1.008 0.4238 326.315 -179.089 -224.962 
3005 544 71 1.008 0.4238 188.058 -225.542 -270.896 
3006 544 71 1.008 0.4238 187.154 -224.341 -271.535 
4909 1178 70 15.9994 -0.8476 238.41 -224.187 -129.22 
5768 1465 71 1.008 0.4238 233.847 -174.953 -177.639 
1587 114 20 1.008 0.032 325.53 -171.334 -225.86 
5770 1465 70 15.9994 -0.8476 233.655 -175.891 -177.351 
5769 1465 71 1.008 0.4238 232.888 -175.891 -176.709 
1583 114 64 12.011 0.158 326.444 -170.925 -225.467 
4229 952 71 1.008 0.4238 287.147 -178.086 -225.665 
1590 114 20 1.008 0.031 326.967 -171.981 -223.698 
1595 114 21 1.008 0.398 327.372 -173.47 -226.18 
6432 1686 71 1.008 0.4238 239.166 -222.461 -219.351 
1589 114 67 15.9994 -0.611 326.916 -173.341 -225.255 
1584 114 12 12.011 0.166 327.26 -171.989 -224.764 
8995 2540 70 15.9994 -0.8476 282.902 -177.805 -266.72 
8993 2540 71 1.008 0.4238 283.428 -177.137 -266.193 
7502 2043 71 1.008 0.4238 188.133 -128.849 -222.593 
7504 2043 70 15.9994 -0.8476 189.089 -128.907 -222.302 
1592 114 20 1.008 0.032 329.072 -171.765 -225.903 
3988 871 70 15.9994 -0.8476 238.728 -126.457 -221.65 
6431 1686 71 1.008 0.4238 239.406 -221.209 -220.371 
7503 2043 71 1.008 0.4238 189.192 -128.473 -221.408 
3987 871 71 1.008 0.4238 238.419 -125.739 -221.026 