LAMMPS data file via write_data, version 15 Apr 2020, timestep = 5000

10411 atoms
71 atom types
7399 bonds
254 bond types
5512 angles
155 angle types
3375 dihedrals
47 dihedral types
125 impropers
5 improper types

6.6171541105741802e+00 5.3382845889398460e+01 xlo xhi
6.6171541105741802e+00 5.3382845889398460e+01 ylo yhi
6.6171541105741802e+00 5.3382845889398460e+01 zlo zhi

Masses

1 15.9994
2 15.9994
3 15.9994
4 15.9994
5 15.9994
6 14.0067
7 14.0067
8 14.0067
9 14.0067
10 14.0067
11 14.0067
12 12.011
13 12.011
14 13.019
15 14.027
16 15.035
17 16.043
18 14.027
19 12.011
20 1.008
21 1.008
22 1
23 32.06
24 63.546
25 63.546
26 55.847
27 65.37
28 24.305
29 40.08
30 39.948
31 18.9984
32 35.453
33 79.904
34 12.011
35 15.9994
36 22.9898
37 35.453
38 12.011
39 35.453
40 1.008
41 32.06
42 12.011
43 15.9994
44 12.011
45 35.453
46 18.9984
47 12.011
48 13.019
49 15.9994
50 12.011
51 15.9994
52 14.0067
53 15.035
54 126.904
55 35.453
56 10.811
57 78.96
58 1.008
59 35.453
60 79.904
61 15.9994
62 14.0067
63 12.011
64 12.011
65 14.0067
66 14.0067
67 15.9994
68 28.08
69 30.9738
70 15.9994
71 1.008

Pair Coeffs # lj/cut/coul/long

1 0.305714 2.76007
2 0.412295 2.62585
3 0.203061 2.95484
4 0.252656 2.84916
5 0.155394 3.16565
6 0.152915 3.13647
7 0.0700622 3.5722
8 0.152915 3.13647
9 0.104651 3.34113
10 0.152915 3.13647
11 0.152915 3.13647
12 0.0663015 3.58118
13 0.00167194 6.63949
14 0.0226791 5.01918
15 0.098122 4.07038
16 0.207254 3.74792
17 0.302012 3.70995
18 0.11455 3.95474
19 0.120138 3.74119
20 0.0282937 2.37341
21 0 0
22 0 0
23 0.455513 3.30769
24 2.039 1.5184
25 2.039 1.5184
26 0 0
27 1.107 1.68112
28 0.0747249 1.93323
29 0.121156 2.81311
30 0.238148 3.40984
31 0.10897 2.94006
32 0.300087 3.46982
33 0.69792 3.6508
34 0.243126 3.60124
35 0.131455 3.17694
36 0.00509651 3.12117
37 0.162149 4.09571
38 0.101741 3.40006
39 0.299511 3.44
40 0.0197496 2.20219
41 0.310038 3.55995
42 0.207254 3.74792
43 0.409923 2.63004
44 0.0544087 3.7739
45 0.270582 3.44757
46 0.0828967 3.07717
47 0.0970049 3.3611
48 0.117014 3.91992
49 0.203061 2.95484
50 0.105027 3.74991
51 0.210013 2.95998
52 0.169966 3.25006
53 0.207254 3.74792
54 0.836845 3.84961
55 0.329921 3.26983
56 0.0663015 3.58118
57 0.455513 3.30769
58 0 0
59 0.329921 3.26983
60 0.580843 3.89995
61 0.119432 3.40025
62 0.1399 3.9019
63 0.0734574 3.52053
64 0.245018 2.81144
65 0.142655 4.06776
66 0.219779 3.64529
67 0.119497 3.1
68 0.584786 3.38557
69 0.584786 3.38557
70 0.1553 3.166
71 0 0

Bond Coeffs # harmonic

1 375.239 1
2 446.941 1
3 349.274 1.09
4 1109.29 1.12
5 600.242 1.23
6 500.418 1.25
7 499.732 1.32
8 375.003 1.33
9 448.144 1.33
10 498.877 1.33
11 450.617 1.34
12 502.116 1.34
13 450.906 1.36
14 500.679 1.38
15 399.904 1.39
16 498.726 1.39
17 400.057 1.4
18 399.792 1.43
19 450.132 1.43
20 300.222 1.435
21 449.843 1.47
22 299.976 1.48
23 399.968 1.48
24 450.226 1.48
25 450.108 1.5
26 299.844 1.52
27 400.034 1.53
28 299.851 1.61
29 299.727 1.63
30 205.976 1.78
31 449.816 1.78
32 449.828 1.83
33 300.045 1.87
34 59.9679 1.98
35 60.0382 2
36 500.307 2.04
37 63.0357 2.21
38 554.493 1
39 349.928 1.1
40 599.794 1.758
41 449.829 1.53
42 444.341 1.93799
43 599.679 1.76
44 501.026 1.265
45 448.656 1.35
46 555.129 1.63299
47 350.249 2.33839
48 600.161 2.90283
49 445.884 2.79388
50 443.815 2.91189
51 409.328 2.077
52 600.173 2.87407
53 88.4321 1.1
54 56.1663 1.84
55 513.862 1.01
56 310.707 1.41
57 442.161 1.02
58 239.006 1.46
59 513.862 1.29
60 442.161 0.972
61 812.62 1.22
62 466.061 1.22
63 239.006 1.54
64 179.254 1.56
65 227.055 1.54
66 106.358 1.76
67 131.453 1.69
68 203.155 1.75
69 203.155 1.51
70 143.403 1.57
71 179.254 0.971
72 191.205 1.5
73 262.906 1.45
74 549.713 1.52
75 83.652 1.03
76 191.205 1.74
77 191.205 1.72
78 227.055 1.64
79 203.155 1.67
80 191.205 1.66
81 215.105 1.65
82 513.862 1.31
83 155.354 1.01
84 35.8509 1.89
85 101.577 1.93
86 155.354 1.36
87 167.304 1.79
88 114.723 1.35
89 155.354 1.39
90 203.155 1.38
91 227.055 0.983
92 155.354 1.3
93 418.26 1.08
94 155.354 1.9
95 1314.53 1.16
96 143.403 1.8
97 155.354 1.42
98 478.011 0.984
99 119.503 1.08
100 119.503 1.91
101 418.26 1.03
102 525.813 1.28
103 131.453 1.22
104 143.403 1.11
105 1195.03 1.21
106 466.061 1.07
107 956.023 1.21
108 693.117 1.21
109 87.2371 1.85
110 394.359 1.11
111 109.943 2.09
112 131.453 1.82
113 99.1874 1.96
114 56.1663 1.86
115 167.304 1.21
116 167.304 1.28
117 143.403 1.71
118 131.453 1.6
119 454.111 1.21
120 41.826 1.61
121 131.453 1.94
122 155.354 1.59
123 143.403 2.1
124 119.503 2.12
125 57.3614 2.13
126 203.155 1.26
127 1195.03 1.14
128 191.205 1.23
129 788.719 1.3
130 239.006 1.31
131 59.7514 2.04
132 82.457 1.34
133 621.415 0.938
134 310.707 1.16
135 34.6558 2.07
136 60.9465 1.16
137 93.2122 2.16
138 43.021 2.23
139 23.9006 2.05
140 896.272 1.19
141 728.967 1.47
142 394.359 1.57
143 1195.03 1.18
144 54.9713 1.87
145 1063.58 1.17
146 215.105 1.13
147 59.7514 2.02
148 179.254 1.07
149 250.956 1.14
150 155.354 1.06
151 537.763 1.46
152 812.62 1.17
153 92.0172 2.15
154 239.006 1.04
155 60.9465 1.4
156 1314.53 1.11
157 466.061 1.56
158 752.868 1.49
159 501.912 1.54
160 35.8509 2.17
161 35.8509 2.27
162 669.216 1.45
163 764.818 1.25
164 848.47 1.27
165 561.663 1.16
166 1434.03 1.14
167 501.912 1.17
168 537.763 1.19
169 920.172 1.14
170 227.055 1.24
171 1434.03 1.13
172 89.6272 2.91
173 57.3614 2.24
174 418.26 0.743
175 239.006 1.2
176 111.138 2.33
177 96.7973 2.42
178 83.652 1.32
179 1159.18 1.2
180 1314.53 1.2
181 430.21 1.58
182 53.7763 1.47
183 1.55354 2.77
184 5.13862 2.25
185 100.382 2.18
186 50.1912 1.52
187 93.2122 2.19
188 27.4857 1.48
189 1912.05 1.07
190 8.60421 2.8
191 87.2371 2.52
192 0.669216 2.79
193 812.62 1.16
194 1.79254 2.68
195 406.31 1.59
196 119.503 1.18
197 34.6558 2.54
198 1792.54 1.1
199 824.57 1.29
200 33.4608 2.44
201 107.553 2.41
202 112.333 2.36
203 20.3155 1.43
204 2.27055 2.57
205 19.1205 2.47
206 0.764818 2.71
207 1553.54 1.12
208 3.70459 2.75
209 501.912 1.14
210 0.717017 2.86
211 10.5163 2.64
212 1912.05 0.985
213 1.91205 2.61
214 7.40918 2.62
215 59.7514 2.46
216 3.58509 2.66
217 1.31453 2.72
218 58.5564 1.63
219 573.614 1.12
220 37.0459 2.32
221 16.7304 1.44
222 1553.54 1.16
223 7.17017 2.69
224 10.0382 2.49
225 3.22658 2.92
226 0.82457 2.29
227 9.79924 2.4
228 1.03967 2.37
229 1.55354 2.94
230 5.85564 2.95
231 1.67304 2.96
232 0.0131453 2.56
233 5.25813 2.59
234 15.5354 2.38
235 836.52 1.12
236 1.91205 2.5
237 2.39006 2.3
238 585.564 1.04
239 3.34608 2.99
240 0.967973 2.34
241 1.07553 2.98
242 2.27055 2.74
243 1063.58 1.16
244 812.62 1.5
245 1.31453 2.84
246 0.322658 2.82
247 908.222 1.23
248 466.061 1.05
249 3.34608 2.88
250 1434.03 1.18
251 1673.04 1.15
252 6.33365 2.9
253 0 0
254 100 1

Angle Coeffs # harmonic

1 45.3116 90
2 50.0917 90
3 47.7712 96
4 54.9551 100
5 47.5559 103
6 55.0345 104
7 50.1709 108
8 30.1731 109.5
9 33.8897 109.5
10 40.2609 109.5
11 45.0394 109.5
12 47.694 109.5
13 55.1272 109.5
14 47.635 109.6
15 55.1139 111
16 55.0997 113
17 4.824 115
18 45.0699 115
19 59.7937 115
20 44.8085 116
21 59.7719 116
22 60.1639 117
23 34.88 120
24 39.8095 120
25 45.1871 120
26 47.4278 120
27 50.1166 120
28 59.9756 120
29 69.8346 120
30 60.0726 121
31 60.091 122
32 34.8146 123
33 59.8929 124
34 30.0075 125
35 60.0779 125
36 44.9139 126
37 49.998 126
38 60.166 126
39 50.1189 132
40 47.5187 155
41 28.4971 180
42 45.9951 109.5
43 52.4767 107.57
44 65.472 111.3
45 55.0189 97.4
46 55.0247 106.75
47 47.5019 108.53
48 65.5335 109.5
49 54.9566 107.6
50 47.4817 109.5
51 54.9931 110.3
52 55.0234 111.4
53 60.044 117.2
54 60.0023 121.4
55 48.24 180
56 180.46 109
57 192.229 106
58 145.153 126
59 145.153 96.2
60 156.922 114
61 203.998 119
62 239.306 130
63 298.152 107
64 156.922 134
65 239.306 101
66 286.382 113
67 368.766 134
68 356.997 119
69 333.459 126
70 251.075 89.6
71 380.536 114
72 286.382 135
73 145.153 88.3
74 133.384 60
75 380.536 179
76 251.075 180
77 470.766 178
78 47.0766 59.9
79 47.0766 60.3
80 251.075 124
81 706.149 118
82 117.691 144
83 627.688 123
84 470.766 118
85 333.459 94.8
86 90.2301 175
87 156.922 82.8
88 117.691 77.6
89 239.306 145
90 251.075 50.8
91 380.536 104
92 262.844 84.4
93 215.768 63.3
94 215.768 61
95 298.152 173
96 192.229 173
97 82.384 50.9
98 431.535 127
99 62.7688 67.8
100 156.922 180
101 588.457 118
102 30.1731 110
103 227.537 94.8
104 431.535 173
105 34.5228 78.5
106 70.6149 138
107 70.6149 168
108 156.922 167
109 18.046 149
110 333.459 144
111 356.997 148
112 321.69 144
113 356.997 148
114 321.69 147
115 333.459 144
116 5099.96 60.8
117 1451.53 68
118 298.152 161
119 156.922 155
120 309.921 154
121 215.768 75.3
122 309.921 64.7
123 549.227 173
124 3334.59 45.8
125 863.071 123
126 549.227 123
127 470.766 166
128 380.536 166
129 203.998 139
130 66.6918 161
131 7.45379 44.9
132 25.1075 84.8
133 192.229 161
134 333.459 70.4
135 627.688 173
136 1.92229 51.6
137 21.5768 73.3
138 7.45379 174
139 470.766 132
140 145.153 69.9
141 15.6922 144
142 1922.29 97.9
143 392.305 155
144 588.457 104
145 117.691 149
146 509.996 157
147 286.382 166
148 333.459 89.8
149 392.305 79.1
150 6669.18 45.2
151 470.766 101
152 745.379 125
153 168.691 49.6
154 509.996 112
155 100 109.47

Dihedral Coeffs # harmonic

1 0.638145 -1 1
2 0.81501 -1 1
3 1.18786 -1 1
4 1.40057 -1 1
5 2.2347 -1 1
6 2.2586 -1 1
7 0.666826 1 1
8 1.27868 1 1
9 0.365679 -1 2
10 1.40057 -1 2
11 1.69933 -1 2
12 3.9914 -1 2
13 5.73614 -1 2
14 8.00669 -1 2
15 9.99044 -1 2
16 0 1 2
17 0.0999044 1 2
18 0.499522 1 2
19 0.750478 1 2
20 1.21654 1 2
21 3.9914 1 2
22 0.250956 1 3
23 0.301147 1 3
24 0.310707 1 3
25 0.604685 1 3
26 0.700287 1 3
27 0.762428 1 3
28 0.872371 1 3
29 0.901052 1 3
30 0.932122 1 3
31 0.999044 1 3
32 1.12094 1 3
33 1.30019 1 3
34 1.41491 1 3
35 1.83795 1 3
36 2.06023 1 3
37 2.27055 1 3
38 0 1 4
39 0.239006 -1 6
40 0.239006 1 6
41 0.901052 1 6
42 0.83652 -1 2
43 0.669216 1 3
44 0.167304 -1 6
45 0.0956023 1 6
46 0.239006 -1 3
47 0 1 1

Improper Coeffs # harmonic

1 20.0075 0
2 40.0151 35.2644
3 80.0302 0
4 20.0075 180
5 40.0151 -35.2644

Atoms # full

4351 992 70 -8.4760000000000002e-01 1.3161333611165411e+01 1.5009120174402252e+01 7.7072492579758700e+00 4 -4 -7
4350 992 71 4.2380000000000001e-01 1.2968563267837631e+01 1.4115942257820642e+01 8.1135441380256026e+00 4 -4 -7
4349 992 71 4.2380000000000001e-01 1.2336690398428857e+01 1.5573973836053497e+01 7.7373602469534477e+00 4 -4 -7
7303 1976 70 -8.4760000000000002e-01 1.3208441165161627e+01 1.3406810479869133e+01 1.1966236956035964e+01 6 -6 -4
7302 1976 71 4.2380000000000001e-01 1.3988020010774811e+01 1.3347214730206272e+01 1.1342772526721449e+01 6 -6 -4
7301 1976 71 4.2380000000000001e-01 1.3523159797189550e+01 1.3711251124862343e+01 1.2865275792751930e+01 6 -6 -4
8380 2335 70 -8.4760000000000002e-01 8.1893760967882514e+00 1.2763467045831966e+01 9.3482913067257805e+00 8 -4 -6
10223 2950 71 4.2380000000000001e-01 1.3663505612052537e+01 1.1119656204063890e+01 1.0256829632264012e+01 5 -5 -6
6131 1586 71 4.2380000000000001e-01 1.6884115427186394e+01 1.6204596090970909e+01 1.7030853044205561e+01 7 -4 -7
9142 2589 70 -8.4760000000000002e-01 1.5566503898767269e+01 8.9355757190390150e+00 1.4305078473202119e+01 7 -3 -3
8626 2417 70 -8.4760000000000002e-01 1.5306953433620475e+01 1.2132377758428881e+01 1.0501104698532011e+01 7 -6 -5
8624 2417 71 4.2380000000000001e-01 1.5446652595652896e+01 1.1459629854561317e+01 1.1227669998870343e+01 7 -6 -5
1979 202 71 4.2380000000000001e-01 1.5494425144419189e+01 1.3758671284135449e+01 1.4166495018172149e+01 7 -6 -7
1981 202 70 -8.4760000000000002e-01 1.4506388732739214e+01 1.3613776958025563e+01 1.4219338265143779e+01 7 -6 -7
1980 202 71 4.2380000000000001e-01 1.4318533718907009e+01 1.2788724659822382e+01 1.4752256600999470e+01 7 -6 -7
190 14 20 3.1000000000000000e-02 9.5994977109120700e+00 9.0475732040877936e+00 1.5110512070854016e+01 8 -4 -7
184 14 12 1.6600000000000001e-01 1.0003603890459157e+01 9.3665908191072234e+00 1.6080322790362594e+01 8 -4 -7
189 14 67 -6.1099999999999999e-01 9.1302201299896417e+00 8.9761407150788965e+00 1.7064765478224864e+01 8 -4 -7
593 43 20 3.2000000000000001e-02 1.3842166902968831e+01 1.7077482697917212e+01 1.1811015117822155e+01 7 -5 -5
594 43 20 3.2000000000000001e-02 1.4632446337305753e+01 1.6174988979560993e+01 1.0456241191127580e+01 7 -5 -5
7657 2094 70 -8.4760000000000002e-01 1.1076081920858371e+01 1.1485484428616981e+01 1.2619177486515984e+01 7 -8 -6
7655 2094 71 4.2380000000000001e-01 1.1804797989435258e+01 1.2150121738061348e+01 1.2454153514317650e+01 7 -8 -6
2153 260 71 4.2380000000000001e-01 1.2505113661028940e+01 1.5708200361241172e+01 1.5808717264586276e+01 6 -5 -6
4715 1114 71 4.2380000000000001e-01 1.0589777530718811e+01 1.4565010245065388e+01 1.5004482502544422e+01 5 -6 -6
2154 260 71 4.2380000000000001e-01 1.3870351433330296e+01 1.4877856011299752e+01 1.5472134712603520e+01 6 -5 -6
2155 260 70 -8.4760000000000002e-01 1.3458401431015652e+01 1.5562566130929968e+01 1.6073360108609570e+01 6 -5 -6
7656 2094 71 4.2380000000000001e-01 1.1456050844350059e+01 1.0560857306018789e+01 1.2592889810203706e+01 7 -8 -6
194 14 58 4.1699999999999998e-01 8.9023709573374781e+00 1.2324145427309492e+01 1.5292845050094906e+01 8 -4 -7
191 14 67 -6.3100000000000001e-01 8.7012400515463106e+00 1.1487373224746790e+01 1.5746560224218443e+01 8 -4 -7
9901 2842 70 -8.4760000000000002e-01 1.2134303426976000e+01 8.9616617905382814e+00 1.2082413655405336e+01 7 -2 -4
9899 2842 71 4.2380000000000001e-01 1.1271731731644969e+01 8.4854313782917590e+00 1.1911599678620892e+01 7 -2 -4
185 14 64 1.5800000000000000e-01 9.9765416183592990e+00 1.0940832747921164e+01 1.6094818439362605e+01 8 -4 -7
9900 2842 71 4.2380000000000001e-01 1.2721246570260028e+01 8.3920809353028520e+00 1.2657807557018369e+01 7 -2 -4
589 43 64 1.5800000000000000e-01 1.4427387603428556e+01 1.7123947112752099e+01 1.0834913160835960e+01 7 -5 -5
193 14 20 3.2000000000000001e-02 1.0118280898758529e+01 1.1339098722272620e+01 1.7083148630631271e+01 8 -4 -7
4717 1114 70 -8.4760000000000002e-01 1.0811412709063490e+01 1.5346423287152504e+01 1.5587813917888154e+01 5 -6 -6
4716 1114 71 4.2380000000000001e-01 1.0234941078425148e+01 1.6123982475335694e+01 1.5336644185334185e+01 5 -6 -6
4884 1170 71 4.2380000000000001e-01 1.6100684662372785e+01 1.5315170900098803e+01 7.2513318028844251e+00 4 -5 -4
9939 2855 71 4.2380000000000001e-01 1.0814476767147191e+01 1.6248037828687508e+01 1.0775637656439326e+01 9 -5 -9
6470 1699 71 4.2380000000000001e-01 3.9062592699012569e+01 2.9989086978270183e+01 6.8973388900291894e+00 9 -5 -5
2455 360 70 -8.4760000000000002e-01 9.5433188248978613e+00 1.7873033758348036e+01 1.5596017890929661e+01 5 -3 -5
4311 979 71 4.2380000000000001e-01 9.2844528709637313e+00 1.4094270283003720e+01 1.3390372668430807e+01 5 -2 -5
4310 979 71 4.2380000000000001e-01 9.8916308054246080e+00 1.2600712783959320e+01 1.3649708413991306e+01 5 -2 -5
4312 979 70 -8.4760000000000002e-01 9.5402574718755453e+00 1.3427013930004339e+01 1.4089898477231465e+01 5 -2 -5
4885 1170 70 -8.4760000000000002e-01 1.5601073885586992e+01 1.6138522544017864e+01 6.9821034113397547e+00 4 -5 -4
6298 1641 70 -8.4760000000000002e-01 9.6054092012151440e+00 1.2106718004440054e+01 7.0861473437272045e+00 6 -7 -5
2454 360 71 4.2380000000000001e-01 9.8899316478540982e+00 1.8665059543650010e+01 1.5093466510662745e+01 5 -3 -5
3722 783 71 4.2380000000000001e-01 1.2229382426502379e+01 1.1765718658351869e+01 9.0354546784938492e+00 5 -6 -5
3724 783 70 -8.4760000000000002e-01 1.1947244900687330e+01 1.2604606588405222e+01 8.5699766728802071e+00 5 -6 -5
3723 783 71 4.2380000000000001e-01 1.1033361595478683e+01 1.2480151343462570e+01 8.1835420452549599e+00 5 -6 -5
10225 2950 70 -8.4760000000000002e-01 1.2899512225135609e+01 1.0520048565855802e+01 1.0018527205712967e+01 5 -5 -6
10224 2950 71 4.2380000000000001e-01 1.2835065133890424e+01 9.7801481819092988e+00 1.0688152435239989e+01 5 -5 -6
6555 1727 71 4.2380000000000001e-01 1.1082299963247326e+01 1.4271497418003140e+01 9.8450857905554177e+00 8 -3 -6
6556 1727 70 -8.4760000000000002e-01 1.1142363364586082e+01 1.4606131039723211e+01 1.0785519441444887e+01 8 -3 -6
6554 1727 71 4.2380000000000001e-01 1.1832225542066748e+01 1.4080217321819175e+01 1.1283020864767934e+01 8 -3 -6
9763 2796 70 -8.4760000000000002e-01 1.5525625655899770e+01 1.0514148186761943e+01 8.0565459168457707e+00 5 -5 -5
183 14 64 1.5800000000000000e-01 1.1441734360386807e+01 8.9767282324153577e+00 1.6424430892311491e+01 8 -4 -7
9761 2796 71 4.2380000000000001e-01 1.5423713604589095e+01 1.1241641515182245e+01 8.7350519151687784e+00 5 -5 -5
8899 2508 70 -8.4760000000000002e-01 1.3366551121983244e+01 7.1682787448669396e+00 1.3705612123528645e+01 7 -4 -5
195 14 21 3.9800000000000002e-01 8.4353135310995810e+00 8.3177426205926732e+00 1.6689243332686047e+01 8 -4 -7
8379 2335 71 4.2380000000000001e-01 8.7249402695873712e+00 1.2418202244994699e+01 8.5775984656777382e+00 8 -4 -6
4071 899 71 4.2380000000000001e-01 7.7874965929914204e+00 1.0103321106750627e+01 1.4328071388213065e+01 10 -2 -7
9140 2589 71 4.2380000000000001e-01 1.4859200864101402e+01 8.3568201715637631e+00 1.3899163259115202e+01 7 -3 -3
9940 2855 70 -8.4760000000000002e-01 1.0992530461720712e+01 1.7168822425867948e+01 1.0428570873044455e+01 9 -5 -9
602 43 21 4.1699999999999998e-01 1.2689409639809575e+01 1.7418019079873872e+01 9.9121042895507756e+00 7 -5 -5
9938 2855 71 4.2380000000000001e-01 1.1034743553853048e+01 1.7811110326433671e+01 1.1193872797526573e+01 9 -5 -9
9851 2826 71 4.2380000000000001e-01 9.8970669027647098e+00 8.0551030511209412e+00 1.0580455714525655e+01 7 -2 -6
590 43 12 1.6600000000000001e-01 1.5770751683540890e+01 1.7816670857476701e+01 1.1196626627534844e+01 7 -5 -5
599 43 20 3.2000000000000001e-02 1.7007368558467057e+01 1.6568033263097426e+01 9.9279580132754024e+00 7 -5 -5
8378 2335 71 4.2380000000000001e-01 8.3450142120292536e+00 1.2184203689647962e+01 1.0148437622349229e+01 8 -4 -6
2453 360 71 4.2380000000000001e-01 8.5923552959529150e+00 1.8035407753296546e+01 1.5859278557620872e+01 5 -3 -5
10023 2883 71 4.2380000000000001e-01 5.1677381595905899e+01 1.2900099715862268e+01 1.3682430025734611e+01 7 -5 -5
592 43 67 -6.3100000000000001e-01 1.3590265757243223e+01 1.7821451948285759e+01 9.9236669775513384e+00 7 -5 -5
1784 137 71 4.2380000000000001e-01 1.4737113706966978e+01 1.6605127479944343e+01 1.6741209594188536e+01 7 -5 -6
1831 152 70 -8.4760000000000002e-01 7.5742383673726961e+00 1.5486742831096505e+01 9.6667289110234051e+00 3 -3 -6
1830 152 71 4.2380000000000001e-01 7.9992520767569548e+00 1.6051979616861793e+01 8.9597113366805026e+00 3 -3 -6
9762 2796 71 4.2380000000000001e-01 1.5040064837341628e+01 9.6973565310676157e+00 8.3681304610844229e+00 5 -5 -5
2615 414 71 4.2380000000000001e-01 9.6223234898731889e+00 1.1254342744139667e+01 1.1626011691212824e+01 4 -5 -5
186 14 67 -6.3100000000000001e-01 1.1747258217299141e+01 7.6554841179521489e+00 1.5860199526309112e+01 8 -4 -7
1829 152 71 4.2380000000000001e-01 7.7574898508019432e+00 1.4522127997330816e+01 9.4771473135595361e+00 3 -3 -6
2572 399 70 -8.4760000000000002e-01 1.4440808403731884e+01 7.5572325947272692e+00 7.5051141769631400e+00 5 -6 -7
4142 923 71 4.2380000000000001e-01 1.4254584147602277e+01 1.1048642077735927e+01 1.6215765542364672e+01 3 -7 -3
9006 2544 71 4.2380000000000001e-01 4.0858577321666999e+01 7.6071929290255129e+00 2.3029173227458326e+01 4 -5 -4
4230 952 71 4.2380000000000001e-01 9.4862698177340334e+00 8.7662624157363709e+00 8.0285036240498382e+00 6 -4 -5
4231 952 70 -8.4760000000000002e-01 8.9462471665532988e+00 8.1768782897293626e+00 7.4276669966044100e+00 6 -4 -5
2617 414 70 -8.4760000000000002e-01 8.8539013768642327e+00 1.0795671824061426e+01 1.1179748040408063e+01 4 -5 -5
4695 1107 71 4.2380000000000001e-01 1.1080918891539628e+01 9.9709501851666573e+00 9.3870913314215123e+00 6 -6 -5
1786 137 70 -8.4760000000000002e-01 1.5233385336675457e+01 1.7160124394003347e+01 1.7408814868661612e+01 7 -5 -6
10304 2977 71 4.2380000000000001e-01 1.7229656037327604e+01 8.1433093420135929e+00 1.0452707797311508e+01 5 -7 -5
188 14 20 3.2000000000000001e-02 1.2169411174741715e+01 9.6969272572932379e+00 1.6164929116265945e+01 8 -4 -7
5184 1270 71 4.2380000000000001e-01 6.6787300166240069e+00 1.1225222206342696e+01 1.6705012935110521e+01 9 -4 -6
9853 2826 70 -8.4760000000000002e-01 9.9508556891892841e+00 7.5310480772081716e+00 1.1430441522125831e+01 7 -2 -6
2571 399 71 4.2380000000000001e-01 1.3441116618182214e+01 7.5577963058934374e+00 7.5299944324637140e+00 5 -6 -7
10024 2883 70 -8.4760000000000002e-01 5.2243537945506603e+01 1.3337652038673188e+01 1.4381013327052401e+01 7 -5 -5
10022 2883 71 4.2380000000000001e-01 5.2642863917736534e+01 1.4175829257122096e+01 1.4009527803077404e+01 7 -5 -5
4229 952 71 4.2380000000000001e-01 8.2087943209446443e+00 7.7519007887514890e+00 7.9526052408255508e+00 6 -4 -5
4694 1107 71 4.2380000000000001e-01 9.5893053062062776e+00 9.9077747923369763e+00 1.0048704126621729e+01 6 -6 -5
4696 1107 70 -8.4760000000000002e-01 1.0257557354690718e+01 9.4133669012081480e+00 9.4928239439756048e+00 6 -6 -5
4260 962 71 4.2380000000000001e-01 9.4236768284755108e+00 1.7804731671310648e+01 1.2647997633035949e+01 4 -6 -8
192 14 20 3.2000000000000001e-02 1.0809686465585312e+01 1.1244333785473414e+01 1.5462792617944258e+01 8 -4 -7
8091 2239 71 4.2380000000000001e-01 1.0834372126177691e+01 1.4217838028947927e+01 1.6875094596568047e+01 6 -6 -6
187 14 20 3.2000000000000001e-02 1.1552476792763233e+01 8.9666576504843878e+00 1.7543201934392691e+01 8 -4 -7
2425 350 70 -8.4760000000000002e-01 7.6266375101637927e+00 7.1166208185048632e+00 1.3505042185391662e+01 8 -4 -7
1508 108 20 3.2000000000000001e-02 2.5935566323907949e+01 1.5005803991348296e+01 7.1815906169952237e+00 5 -5 -4
9185 2604 71 4.2380000000000001e-01 1.6496075341703648e+01 9.7998368531256830e+00 1.3071156947152001e+01 6 -5 -6
4143 923 71 4.2380000000000001e-01 1.4576658454387900e+01 1.0438732154432490e+01 1.4735592566144264e+01 3 -7 -3
4144 923 70 -8.4760000000000002e-01 1.4259033682044040e+01 1.1244669334037715e+01 1.5235175600339728e+01 3 -7 -3
9187 2604 70 -8.4760000000000002e-01 1.7053646810484125e+01 1.0395381754484848e+01 1.2492845588698351e+01 6 -5 -6
5804 1477 71 4.2380000000000001e-01 1.7342714580817770e+01 9.1319677619731969e+00 7.5409943289714043e+00 5 -4 -6
9186 2604 71 4.2380000000000001e-01 1.7391844253754790e+01 9.8762216470020707e+00 1.1707926078639805e+01 6 -5 -6
8139 2255 71 4.2380000000000001e-01 3.2801787029703391e+01 6.8077564223795388e+00 2.0912756354055595e+01 6 -2 -6
974 70 20 3.1000000000000000e-02 7.2911554323319727e+00 1.6165854876353201e+01 6.6769170182956188e+00 6 -4 -5
9941 2856 71 4.2380000000000001e-01 4.3349808426941266e+01 2.9914104835679240e+01 1.2552084640304741e+01 7 -4 -7
2929 518 70 -8.4760000000000002e-01 8.4572839338263659e+00 1.6252752098179233e+01 1.2426198822696481e+01 7 -4 -5
2927 518 71 4.2380000000000001e-01 8.2317140394937045e+00 1.6033126157446127e+01 1.1477048589768629e+01 7 -4 -5
1312 94 20 3.2000000000000001e-02 4.4597190799282401e+01 1.1779708336891966e+01 2.9756454630372485e+01 6 -5 -4
5639 1422 71 4.2380000000000001e-01 8.0325654079136690e+00 1.8301761548020117e+01 8.5490395655065878e+00 7 -5 -7
9713 2780 71 4.2380000000000001e-01 2.3295467786572107e+01 1.7041621286188732e+01 7.4223171019739373e+00 2 -3 -3
2271 299 71 4.2380000000000001e-01 1.4486468857475078e+01 1.6882387984827997e+01 1.9366981566341096e+01 6 -4 -6
8986 2537 70 -8.4760000000000002e-01 3.4702456691518883e+01 1.7187906117126474e+01 8.8346117077029707e+00 4 -5 -8
7405 2010 70 -8.4760000000000002e-01 7.1093402060480937e+00 2.9941512763185752e+01 1.1707925867799769e+01 6 -3 -7
196 14 21 4.1699999999999998e-01 1.0898568766232614e+01 7.3116510126373617e+00 1.5390551897444359e+01 8 -4 -7
4464 1030 71 4.2380000000000001e-01 8.5529928689208230e+00 2.5512412514753553e+01 2.9461167388863181e+01 6 -5 -6
5425 1350 70 -8.4760000000000002e-01 1.4280267629385971e+01 1.0892198541659415e+01 1.8275678983655403e+01 5 -5 -8
5622 1416 71 4.2380000000000001e-01 4.8482278836709241e+01 2.7569301217905739e+01 1.3667340576636480e+01 4 -7 -4
7744 2123 70 -8.4760000000000002e-01 3.1337972060357323e+01 2.9805144789426990e+01 1.0300488444227794e+01 7 -7 -4
4907 1178 71 4.2380000000000001e-01 5.3138158909885931e+01 6.8451643171503926e+00 9.2410694554119495e+00 4 -5 -3
5641 1422 70 -8.4760000000000002e-01 8.6398996494945166e+00 1.7714801620575095e+01 8.0136636847405285e+00 7 -5 -7
5570 1399 71 4.2380000000000001e-01 2.8502911956580533e+01 1.0599753032540718e+01 2.9398761700661574e+01 6 -4 -6
6133 1586 70 -8.4760000000000002e-01 1.7486956164654657e+01 1.5809970847890645e+01 1.6337414727854306e+01 7 -4 -7
595 43 67 -6.1099999999999999e-01 1.6134350523237799e+01 1.7243923793725280e+01 1.2484425304251484e+01 7 -5 -5
8625 2417 71 4.2380000000000001e-01 1.6051875794025165e+01 1.2799348901325310e+01 1.0516690750834472e+01 7 -6 -5
8477 2368 71 4.2380000000000001e-01 1.7292767777035401e+01 1.5506307097725715e+01 1.3019559057747816e+01 6 -4 -6
2909 512 71 4.2380000000000001e-01 1.5149454820971416e+01 7.7469362020291488e+00 1.7369957613213522e+01 6 -5 -5
6132 1586 71 4.2380000000000001e-01 1.7703957079433032e+01 1.4865207180366049e+01 1.6583046464620015e+01 7 -4 -7
601 43 21 3.9800000000000002e-01 1.6769173355104044e+01 1.7890101360630304e+01 1.3014149026386905e+01 7 -5 -5
8479 2368 70 -8.4760000000000002e-01 1.7385329619544667e+01 1.4844739426859892e+01 1.3763711753768693e+01 6 -4 -6
9141 2589 71 4.2380000000000001e-01 1.5942094965294856e+01 8.4846091823308516e+00 1.5114747101969737e+01 7 -3 -3
10306 2977 70 -8.4760000000000002e-01 1.7298047384388497e+01 9.0739420490250851e+00 1.0093195612398326e+01 5 -7 -5
5806 1477 70 -8.4760000000000002e-01 1.8235958170706162e+01 8.8281667858349326e+00 7.2095979399365282e+00 5 -4 -6
2329 318 70 -8.4760000000000002e-01 1.7777566598455131e+01 1.3268552728433988e+01 1.6847536752657977e+01 4 -3 -7
2328 318 71 4.2380000000000001e-01 1.8288997664377135e+01 1.2509370381401192e+01 1.6444940852650930e+01 4 -3 -7
7667 2098 71 4.2380000000000001e-01 1.6928947616044042e+01 1.3877237765601915e+01 8.8167812677993567e+00 6 -5 -7
7669 2098 70 -8.4760000000000002e-01 1.6914359665157413e+01 1.3960203593549569e+01 7.8203339746294125e+00 6 -5 -7
8478 2368 71 4.2380000000000001e-01 1.7642910351240097e+01 1.5321999025150086e+01 1.4603877365139237e+01 6 -4 -6
3272 633 71 4.2380000000000001e-01 1.8298929741726631e+01 1.4480240895774759e+01 1.0858009195230888e+01 7 -6 -5
3274 633 70 -8.4760000000000002e-01 1.7956619083657145e+01 1.3585442875018593e+01 1.0571368843527191e+01 7 -6 -5
5312 1313 71 4.2380000000000001e-01 1.7384541720477078e+01 7.9527236352602229e+00 1.6943999464080598e+01 5 -5 -6
7668 2098 71 4.2380000000000001e-01 1.7839731851445944e+01 1.3836585560718394e+01 7.4619921997059500e+00 6 -5 -7
6053 1560 71 4.2380000000000001e-01 1.7817919313586611e+01 1.3097900370333768e+01 1.3953465979714494e+01 5 -7 -5
6054 1560 71 4.2380000000000001e-01 1.7855467252160658e+01 1.1573474215739690e+01 1.3369215375089134e+01 5 -7 -5
6055 1560 70 -8.4760000000000002e-01 1.8327499275303033e+01 1.2237486511382311e+01 1.3949108637633021e+01 5 -7 -5
10265 2964 71 4.2380000000000001e-01 2.0727018961133226e+01 1.5295380632557734e+01 1.6706290501152839e+01 9 -4 -4
10266 2964 71 4.2380000000000001e-01 1.9495310684837897e+01 1.4299644856319425e+01 1.7103831332961477e+01 9 -4 -4
4272 966 71 4.2380000000000001e-01 2.1702886094508969e+01 1.6624960676291220e+01 1.2655964070140426e+01 5 -4 -7
4271 966 71 4.2380000000000001e-01 2.0346565660853994e+01 1.5921092773255168e+01 1.2080118048960824e+01 5 -4 -7
4273 966 70 -8.4760000000000002e-01 2.1013321167150636e+01 1.5920833095261317e+01 1.2825396373617565e+01 5 -4 -7
8320 2315 70 -8.4760000000000002e-01 1.9877422878173913e+01 1.6089520643160576e+01 7.8222802543740517e+00 7 -4 -5
8318 2315 71 4.2380000000000001e-01 2.0818467761103019e+01 1.6427698414301396e+01 7.8137307165868872e+00 7 -4 -5
3273 633 71 4.2380000000000001e-01 1.8692470389400611e+01 1.2911239259353728e+01 1.0634417110626476e+01 7 -6 -5
2948 525 71 4.2380000000000001e-01 2.2353887207347874e+01 1.3683249708170923e+01 9.6874300939614102e+00 6 -5 -5
8319 2315 71 4.2380000000000001e-01 1.9258323713739699e+01 1.6819334325907469e+01 7.5322958720782154e+00 7 -4 -5
2949 525 71 4.2380000000000001e-01 2.2134419307292205e+01 1.2850145125608870e+01 8.3002010903793675e+00 6 -5 -5
2950 525 70 -8.4760000000000002e-01 2.2063089381194960e+01 1.2809820498452734e+01 9.2968397857010281e+00 6 -5 -5
3411 679 71 4.2380000000000001e-01 2.2749586703145834e+01 1.1279873530401792e+01 1.0051095128251372e+01 5 -4 -4
3410 679 71 4.2380000000000001e-01 2.2708092950162865e+01 1.0768494422939652e+01 1.1601386527833014e+01 5 -4 -4
3412 679 70 -8.4760000000000002e-01 2.3195289030100685e+01 1.0697542390057782e+01 1.0730979389480026e+01 5 -4 -4
2681 436 71 4.2380000000000001e-01 2.3829722083928949e+01 1.1289791233627138e+01 1.5373434447355079e+01 7 -4 -6
7333 1986 70 -8.4760000000000002e-01 2.2836572346271527e+01 1.2867542900949587e+01 1.6024498936551829e+01 7 -5 -7
2682 436 71 4.2380000000000001e-01 2.4564089034080585e+01 9.8920961238905605e+00 1.5790312466274859e+01 7 -4 -6
2683 436 70 -8.4760000000000002e-01 2.4326310184488097e+01 1.0493640115384364e+01 1.5027679658335220e+01 7 -4 -6
7421 2016 71 4.2380000000000001e-01 2.1289641467974683e+01 1.1881936817727610e+01 1.3114488109883879e+01 6 -5 -2
2467 364 70 -8.4760000000000002e-01 2.2665461231979904e+01 1.5363593595671679e+01 1.0048140018436889e+01 5 -5 -7
2465 364 71 4.2380000000000001e-01 2.2979113814185947e+01 1.5665469727201808e+01 9.1478647017215931e+00 5 -5 -7
2466 364 71 4.2380000000000001e-01 2.2474149214885507e+01 1.6161780017504405e+01 1.0619367532781101e+01 5 -5 -7
6698 1775 71 4.2380000000000001e-01 2.0690407562900113e+01 1.1380004776265730e+01 1.1602380156435235e+01 8 -4 -5
6699 1775 71 4.2380000000000001e-01 2.0851488562883723e+01 1.2429675201797910e+01 1.0361864421981263e+01 8 -4 -5