LAMMPS data file via write_data, version 21 Feb 2017, timestep = 4000000

10411 atoms
71 atom types
7399 bonds
254 bond types
5512 angles
155 angle types
3375 dihedrals
47 dihedral types
125 impropers
5 improper types

6.6972214058208834e+00 5.3302778594171969e+01 xlo xhi
6.6972214058208834e+00 5.3302778594171969e+01 ylo yhi
6.6972214058208834e+00 5.3302778594171969e+01 zlo zhi

Masses

1 15.9994
2 15.9994
3 15.9994
4 15.9994
5 15.9994
6 14.0067
7 14.0067
8 14.0067
9 14.0067
10 14.0067
11 14.0067
12 12.011
13 12.011
14 13.019
15 14.027
16 15.035
17 16.043
18 14.027
19 12.011
20 1.008
21 1.008
22 1
23 32.06
24 63.546
25 63.546
26 55.847
27 65.37
28 24.305
29 40.08
30 39.948
31 18.9984
32 35.453
33 79.904
34 12.011
35 15.9994
36 22.9898
37 35.453
38 12.011
39 35.453
40 1.008
41 32.06
42 12.011
43 15.9994
44 12.011
45 35.453
46 18.9984
47 12.011
48 13.019
49 15.9994
50 12.011
51 15.9994
52 14.0067
53 15.035
54 126.904
55 35.453
56 10.811
57 78.96
58 1.008
59 35.453
60 79.904
61 15.9994
62 14.0067
63 12.011
64 12.011
65 14.0067
66 14.0067
67 15.9994
68 28.08
69 30.9738
70 15.9994
71 1.008

Pair Coeffs # lj/cut/coul/long/gpu

1 0.305714 2.76007
2 0.412295 2.62585
3 0.203061 2.95484
4 0.252656 2.84916
5 0.155394 3.16565
6 0.152915 3.13647
7 0.0700622 3.5722
8 0.152915 3.13647
9 0.104651 3.34113
10 0.152915 3.13647
11 0.152915 3.13647
12 0.0663015 3.58118
13 0.00167194 6.63949
14 0.0226791 5.01918
15 0.098122 4.07038
16 0.207254 3.74792
17 0.302012 3.70995
18 0.11455 3.95474
19 0.120138 3.74119
20 0.0282937 2.37341
21 0 0
22 0 0
23 0.455513 3.30769
24 2.039 1.5184
25 2.039 1.5184
26 0 0
27 1.107 1.68112
28 0.0747249 1.93323
29 0.121156 2.81311
30 0.238148 3.40984
31 0.10897 2.94006
32 0.300087 3.46982
33 0.69792 3.6508
34 0.243126 3.60124
35 0.131455 3.17694
36 0.00509651 3.12117
37 0.162149 4.09571
38 0.101741 3.40006
39 0.299511 3.44
40 0.0197496 2.20219
41 0.310038 3.55995
42 0.207254 3.74792
43 0.409923 2.63004
44 0.0544087 3.7739
45 0.270582 3.44757
46 0.0828967 3.07717
47 0.0970049 3.3611
48 0.117014 3.91992
49 0.203061 2.95484
50 0.105027 3.74991
51 0.210013 2.95998
52 0.169966 3.25006
53 0.207254 3.74792
54 0.836845 3.84961
55 0.329921 3.26983
56 0.0663015 3.58118
57 0.455513 3.30769
58 0 0
59 0.329921 3.26983
60 0.580843 3.89995
61 0.119432 3.40025
62 0.1399 3.9019
63 0.0734574 3.52053
64 0.245018 2.81144
65 0.142655 4.06776
66 0.219779 3.64529
67 0.119497 3.1
68 0.584786 3.38557
69 0.584786 3.38557
70 0.1553 3.166
71 0 0

Bond Coeffs # harmonic

1 375.239 1
2 446.941 1
3 349.274 1.09
4 1109.29 1.12
5 600.242 1.23
6 500.418 1.25
7 499.732 1.32
8 375.003 1.33
9 448.144 1.33
10 498.877 1.33
11 450.617 1.34
12 502.116 1.34
13 450.906 1.36
14 500.679 1.38
15 399.904 1.39
16 498.726 1.39
17 400.057 1.4
18 399.792 1.43
19 450.132 1.43
20 300.222 1.435
21 449.843 1.47
22 299.976 1.48
23 399.968 1.48
24 450.226 1.48
25 450.108 1.5
26 299.844 1.52
27 400.034 1.53
28 299.851 1.61
29 299.727 1.63
30 205.976 1.78
31 449.816 1.78
32 449.828 1.83
33 300.045 1.87
34 59.9679 1.98
35 60.0382 2
36 500.307 2.04
37 63.0357 2.21
38 554.493 1
39 349.928 1.1
40 599.794 1.758
41 449.829 1.53
42 444.341 1.93799
43 599.679 1.76
44 501.026 1.265
45 448.656 1.35
46 555.129 1.63299
47 350.249 2.33839
48 600.161 2.90283
49 445.884 2.79388
50 443.815 2.91189
51 409.328 2.077
52 600.173 2.87407
53 88.4321 1.1
54 56.1663 1.84
55 513.862 1.01
56 310.707 1.41
57 442.161 1.02
58 239.006 1.46
59 513.862 1.29
60 442.161 0.972
61 812.62 1.22
62 466.061 1.22
63 239.006 1.54
64 179.254 1.56
65 227.055 1.54
66 106.358 1.76
67 131.453 1.69
68 203.155 1.75
69 203.155 1.51
70 143.403 1.57
71 179.254 0.971
72 191.205 1.5
73 262.906 1.45
74 549.713 1.52
75 83.652 1.03
76 191.205 1.74
77 191.205 1.72
78 227.055 1.64
79 203.155 1.67
80 191.205 1.66
81 215.105 1.65
82 513.862 1.31
83 155.354 1.01
84 35.8509 1.89
85 101.577 1.93
86 155.354 1.36
87 167.304 1.79
88 114.723 1.35
89 155.354 1.39
90 203.155 1.38
91 227.055 0.983
92 155.354 1.3
93 418.26 1.08
94 155.354 1.9
95 1314.53 1.16
96 143.403 1.8
97 155.354 1.42
98 478.011 0.984
99 119.503 1.08
100 119.503 1.91
101 418.26 1.03
102 525.813 1.28
103 131.453 1.22
104 143.403 1.11
105 1195.03 1.21
106 466.061 1.07
107 956.023 1.21
108 693.117 1.21
109 87.2371 1.85
110 394.359 1.11
111 109.943 2.09
112 131.453 1.82
113 99.1874 1.96
114 56.1663 1.86
115 167.304 1.21
116 167.304 1.28
117 143.403 1.71
118 131.453 1.6
119 454.111 1.21
120 41.826 1.61
121 131.453 1.94
122 155.354 1.59
123 143.403 2.1
124 119.503 2.12
125 57.3614 2.13
126 203.155 1.26
127 1195.03 1.14
128 191.205 1.23
129 788.719 1.3
130 239.006 1.31
131 59.7514 2.04
132 82.457 1.34
133 621.415 0.938
134 310.707 1.16
135 34.6558 2.07
136 60.9465 1.16
137 93.2122 2.16
138 43.021 2.23
139 23.9006 2.05
140 896.272 1.19
141 728.967 1.47
142 394.359 1.57
143 1195.03 1.18
144 54.9713 1.87
145 1063.58 1.17
146 215.105 1.13
147 59.7514 2.02
148 179.254 1.07
149 250.956 1.14
150 155.354 1.06
151 537.763 1.46
152 812.62 1.17
153 92.0172 2.15
154 239.006 1.04
155 60.9465 1.4
156 1314.53 1.11
157 466.061 1.56
158 752.868 1.49
159 501.912 1.54
160 35.8509 2.17
161 35.8509 2.27
162 669.216 1.45
163 764.818 1.25
164 848.47 1.27
165 561.663 1.16
166 1434.03 1.14
167 501.912 1.17
168 537.763 1.19
169 920.172 1.14
170 227.055 1.24
171 1434.03 1.13
172 89.6272 2.91
173 57.3614 2.24
174 418.26 0.743
175 239.006 1.2
176 111.138 2.33
177 96.7973 2.42
178 83.652 1.32
179 1159.18 1.2
180 1314.53 1.2
181 430.21 1.58
182 53.7763 1.47
183 1.55354 2.77
184 5.13862 2.25
185 100.382 2.18
186 50.1912 1.52
187 93.2122 2.19
188 27.4857 1.48
189 1912.05 1.07
190 8.60421 2.8
191 87.2371 2.52
192 0.669216 2.79
193 812.62 1.16
194 1.79254 2.68
195 406.31 1.59
196 119.503 1.18
197 34.6558 2.54
198 1792.54 1.1
199 824.57 1.29
200 33.4608 2.44
201 107.553 2.41
202 112.333 2.36
203 20.3155 1.43
204 2.27055 2.57
205 19.1205 2.47
206 0.764818 2.71
207 1553.54 1.12
208 3.70459 2.75
209 501.912 1.14
210 0.717017 2.86
211 10.5163 2.64
212 1912.05 0.985
213 1.91205 2.61
214 7.40918 2.62
215 59.7514 2.46
216 3.58509 2.66
217 1.31453 2.72
218 58.5564 1.63
219 573.614 1.12
220 37.0459 2.32
221 16.7304 1.44
222 1553.54 1.16
223 7.17017 2.69
224 10.0382 2.49
225 3.22658 2.92
226 0.82457 2.29
227 9.79924 2.4
228 1.03967 2.37
229 1.55354 2.94
230 5.85564 2.95
231 1.67304 2.96
232 0.0131453 2.56
233 5.25813 2.59
234 15.5354 2.38
235 836.52 1.12
236 1.91205 2.5
237 2.39006 2.3
238 585.564 1.04
239 3.34608 2.99
240 0.967973 2.34
241 1.07553 2.98
242 2.27055 2.74
243 1063.58 1.16
244 812.62 1.5
245 1.31453 2.84
246 0.322658 2.82
247 908.222 1.23
248 466.061 1.05
249 3.34608 2.88
250 1434.03 1.18
251 1673.04 1.15
252 6.33365 2.9
253 0 0
254 100 1

Angle Coeffs # harmonic

1 45.3116 90
2 50.0917 90
3 47.7712 96
4 54.9551 100
5 47.5559 103
6 55.0345 104
7 50.1709 108
8 30.1731 109.5
9 33.8897 109.5
10 40.2609 109.5
11 45.0394 109.5
12 47.694 109.5
13 55.1272 109.5
14 47.635 109.6
15 55.1139 111
16 55.0997 113
17 4.824 115
18 45.0699 115
19 59.7937 115
20 44.8085 116
21 59.7719 116
22 60.1639 117
23 34.88 120
24 39.8095 120
25 45.1871 120
26 47.4278 120
27 50.1166 120
28 59.9756 120
29 69.8346 120
30 60.0726 121
31 60.091 122
32 34.8146 123
33 59.8929 124
34 30.0075 125
35 60.0779 125
36 44.9139 126
37 49.998 126
38 60.166 126
39 50.1189 132
40 47.5187 155
41 28.4971 180
42 45.9951 109.5
43 52.4767 107.57
44 65.472 111.3
45 55.0189 97.4
46 55.0247 106.75
47 47.5019 108.53
48 65.5335 109.5
49 54.9566 107.6
50 47.4817 109.5
51 54.9931 110.3
52 55.0234 111.4
53 60.044 117.2
54 60.0023 121.4
55 48.24 180
56 180.46 109
57 192.229 106
58 145.153 126
59 145.153 96.2
60 156.922 114
61 203.998 119
62 239.306 130
63 298.152 107
64 156.922 134
65 239.306 101
66 286.382 113
67 368.766 134
68 356.997 119
69 333.459 126
70 251.075 89.6
71 380.536 114
72 286.382 135
73 145.153 88.3
74 133.384 60
75 380.536 179
76 251.075 180
77 470.766 178
78 47.0766 59.9
79 47.0766 60.3
80 251.075 124
81 706.149 118
82 117.691 144
83 627.688 123
84 470.766 118
85 333.459 94.8
86 90.2301 175
87 156.922 82.8
88 117.691 77.6
89 239.306 145
90 251.075 50.8
91 380.536 104
92 262.844 84.4
93 215.768 63.3
94 215.768 61
95 298.152 173
96 192.229 173
97 82.384 50.9
98 431.535 127
99 62.7688 67.8
100 156.922 180
101 588.457 118
102 30.1731 110
103 227.537 94.8
104 431.535 173
105 34.5228 78.5
106 70.6149 138
107 70.6149 168
108 156.922 167
109 18.046 149
110 333.459 144
111 356.997 148
112 321.69 144
113 356.997 148
114 321.69 147
115 333.459 144
116 5099.96 60.8
117 1451.53 68
118 298.152 161
119 156.922 155
120 309.921 154
121 215.768 75.3
122 309.921 64.7
123 549.227 173
124 3334.59 45.8
125 863.071 123
126 549.227 123
127 470.766 166
128 380.536 166
129 203.998 139
130 66.6918 161
131 7.45379 44.9
132 25.1075 84.8
133 192.229 161
134 333.459 70.4
135 627.688 173
136 1.92229 51.6
137 21.5768 73.3
138 7.45379 174
139 470.766 132
140 145.153 69.9
141 15.6922 144
142 1922.29 97.9
143 392.305 155
144 588.457 104
145 117.691 149
146 509.996 157
147 286.382 166
148 333.459 89.8
149 392.305 79.1
150 6669.18 45.2
151 470.766 101
152 745.379 125
153 168.691 49.6
154 509.996 112
155 100 109.47

Dihedral Coeffs # harmonic

1 0.638145 -1 1
2 0.81501 -1 1
3 1.18786 -1 1
4 1.40057 -1 1
5 2.2347 -1 1
6 2.2586 -1 1
7 0.666826 1 1
8 1.27868 1 1
9 0.365679 -1 2
10 1.40057 -1 2
11 1.69933 -1 2
12 3.9914 -1 2
13 5.73614 -1 2
14 8.00669 -1 2
15 9.99044 -1 2
16 0 1 2
17 0.0999044 1 2
18 0.499522 1 2
19 0.750478 1 2
20 1.21654 1 2
21 3.9914 1 2
22 0.250956 1 3
23 0.301147 1 3
24 0.310707 1 3
25 0.604685 1 3
26 0.700287 1 3
27 0.762428 1 3
28 0.872371 1 3
29 0.901052 1 3
30 0.932122 1 3
31 0.999044 1 3
32 1.12094 1 3
33 1.30019 1 3
34 1.41491 1 3
35 1.83795 1 3
36 2.06023 1 3
37 2.27055 1 3
38 0 1 4
39 0.239006 -1 6
40 0.239006 1 6
41 0.901052 1 6
42 0.83652 -1 2
43 0.669216 1 3
44 0.167304 -1 6
45 0.0956023 1 6
46 0.239006 -1 3
47 0 1 1

Improper Coeffs # harmonic

1 20.0075 0
2 40.0151 35.2644
3 80.0302 0
4 20.0075 180
5 40.0151 -35.2644

Atoms # full

7369 1998 70 -8.4760000000000002e-01 1.6601308279194946e+01 1.1380870047886408e+01 1.4442112597535365e+01 1 4 2
7368 1998 71 4.2380000000000001e-01 1.5768310984562968e+01 1.0915599406098929e+01 1.4741528626452592e+01 1 4 2
5403 1343 71 4.2380000000000001e-01 8.2323543264739243e+00 8.4081743757994030e+00 1.3118866638036565e+01 0 4 1
3023 550 71 4.2380000000000001e-01 1.8385071488456990e+01 1.1597828848961793e+01 1.3591789821525763e+01 -1 4 2
2944 523 70 -8.4760000000000002e-01 9.3352506834687254e+00 9.6822026006876101e+00 1.4164671676088066e+01 0 3 1
3998 875 71 4.2380000000000001e-01 1.6302144839588873e+01 1.0848514264417837e+01 1.0130592577060359e+01 1 4 0
9807 2811 71 4.2380000000000001e-01 1.3321849728202025e+01 1.8572901389699648e+01 1.0906036221605902e+01 1 3 2
9879 2835 71 4.2380000000000001e-01 9.1008800883523602e+00 9.8440269861514871e+00 9.7669614897080379e+00 1 3 2
9880 2835 70 -8.4760000000000002e-01 9.8138366442578757e+00 1.0544272227763305e+01 9.7300648043632485e+00 1 3 2
9376 2667 70 -8.4760000000000002e-01 1.3499414184347337e+01 1.0172904998588786e+01 1.0706630189950387e+01 2 2 3
9375 2667 71 4.2380000000000001e-01 1.3248446341291590e+01 9.3113492786886347e+00 1.0265327969633589e+01 2 2 3
9374 2667 71 4.2380000000000001e-01 1.4312453046105082e+01 1.0550114820922591e+01 1.0263131227341159e+01 2 2 3
150 11 20 3.2000000000000001e-02 1.0785629846032522e+01 8.3781046831738220e+00 8.3220055049280504e+00 -1 4 2
2943 523 71 4.2380000000000001e-01 9.6005717910498980e+00 9.9129400888551125e+00 1.5100821183790197e+01 0 3 1
7373 2000 71 4.2380000000000001e-01 1.2701458886432837e+01 1.1553910742234585e+01 1.0775976663293871e+01 1 3 3
7375 2000 70 -8.4760000000000002e-01 1.2255647276570890e+01 1.2444526884181151e+01 1.0686167545951761e+01 1 3 3
7374 2000 71 4.2380000000000001e-01 1.2945537928285088e+01 1.3146130067505950e+01 1.0507800949255625e+01 1 3 3
3953 860 71 4.2380000000000001e-01 8.3996431938407614e+00 1.4538211707432779e+01 9.5580130840817379e+00 0 5 3
2942 523 71 4.2380000000000001e-01 1.0133599630455789e+01 9.7481825687056087e+00 1.3566092413770230e+01 0 3 1
9878 2835 71 4.2380000000000001e-01 1.0142361966197861e+01 1.0734528978693884e+01 1.0655205277520167e+01 1 3 2
1824 150 71 4.2380000000000001e-01 9.0731716004475302e+00 1.5194500014794011e+01 1.1866513368543483e+01 0 3 3
1622 116 58 4.1699999999999998e-01 2.9288703554133299e+01 2.6910821785424940e+01 1.3890084519139158e+01 0 4 3
3333 653 71 4.2380000000000001e-01 9.5244477615871475e+00 1.2387030327311086e+01 9.0394334468303796e+00 1 3 4
3332 653 71 4.2380000000000001e-01 9.7167932179877177e+00 1.3200579718087882e+01 7.6366516476353343e+00 1 3 4
4000 875 70 -8.4760000000000002e-01 1.5700428628186881e+01 1.1512609407117417e+01 9.6868291024857758e+00 1 4 0
3334 653 70 -8.4760000000000002e-01 9.1414843499310656e+00 1.3096615162857995e+01 8.4479608972806730e+00 1 3 4
3455 694 71 4.2380000000000001e-01 1.2124174994940741e+01 7.2532554137022691e+00 1.0265152887490018e+01 -1 6 3
4566 1064 71 4.2380000000000001e-01 9.9112346310622357e+00 2.9537063077874063e+01 6.7790739524476678e+00 0 2 2
3999 875 71 4.2380000000000001e-01 1.5992414982753502e+01 1.2438719967183349e+01 9.9257306757608852e+00 1 4 0
1825 150 70 -8.4760000000000002e-01 9.5554267399122743e+00 1.5453135389539574e+01 1.2703501578012284e+01 0 3 3
3877 834 70 -8.4760000000000002e-01 1.3727575593437232e+01 1.4557212027525793e+01 1.0238559670569241e+01 0 3 2
9083 2570 71 4.2380000000000001e-01 2.4820450812090115e+01 1.7789332247634835e+01 7.7096116019242373e+00 2 3 2
3875 834 71 4.2380000000000001e-01 1.3528357653391677e+01 1.5031124203013727e+01 1.1096306850763872e+01 0 3 2
8732 2453 71 4.2380000000000001e-01 1.3723361822613866e+01 9.3055094082619529e+00 1.4560258731698529e+01 -1 4 2
3876 834 71 4.2380000000000001e-01 1.4707832641429166e+01 1.4367599910226264e+01 1.0182397977180951e+01 0 3 2
8734 2453 70 -8.4760000000000002e-01 1.4210021402826943e+01 1.0099964123710890e+01 1.4923597326094326e+01 -1 4 2
9405 2677 71 4.2380000000000001e-01 1.6138709474422232e+01 1.5076398713316426e+01 1.2549917956510715e+01 0 2 1
9406 2677 70 -8.4760000000000002e-01 1.6957684630506616e+01 1.5648536616889325e+01 1.2594069795881810e+01 0 2 1
9404 2677 71 4.2380000000000001e-01 1.6834788825832391e+01 1.6451989460356799e+01 1.2011513325116347e+01 0 2 1
8733 2453 71 4.2380000000000001e-01 1.3687554436449314e+01 1.0929595426629906e+01 1.4726744761954359e+01 -1 4 2
1823 150 71 4.2380000000000001e-01 9.6066592783229900e+00 1.6449982693999146e+01 1.2764182736582082e+01 0 3 3
9036 2554 71 4.2380000000000001e-01 1.0895648130504298e+01 1.4489320173044323e+01 1.2821873481693522e+01 1 4 2
9035 2554 71 4.2380000000000001e-01 1.1786470198908560e+01 1.3509762309909437e+01 1.1866071395477100e+01 1 4 2
9037 2554 70 -8.4760000000000002e-01 1.1824582850927200e+01 1.4209168787876296e+01 1.2579786168280018e+01 1 4 2
7134 1920 71 4.2380000000000001e-01 1.0828071105219813e+01 8.5157581314888713e+00 1.1795169286734634e+01 0 5 0
7135 1920 70 -8.4760000000000002e-01 1.1107160979993601e+01 9.4350233275503221e+00 1.2072788312255128e+01 0 5 0
7133 1920 71 4.2380000000000001e-01 1.1959674808641431e+01 9.6784824632575877e+00 1.1610231137761208e+01 0 5 0
7367 1998 71 4.2380000000000001e-01 1.7163406284584603e+01 1.1603514018225303e+01 1.5238659231751448e+01 1 4 2
1844 157 71 4.2380000000000001e-01 9.9677661201638692e+00 7.2608582690072403e+00 1.0451558949284028e+01 1 3 4
143 11 64 1.5800000000000000e-01 1.0219032198322953e+01 8.4561534907999878e+00 7.3985311404604026e+00 -1 4 2
9070 2565 70 -8.4760000000000002e-01 8.3910994056085908e+00 8.0031397917750819e+00 9.9809549535535389e+00 2 2 2
152 11 58 4.1699999999999998e-01 9.6621111728950133e+00 1.0155196466045844e+01 8.0606232223593430e+00 -1 4 2
9069 2565 71 4.2380000000000001e-01 7.7165398995391454e+00 8.0078095776510807e+00 9.2427416074575230e+00 2 2 2
9938 2855 71 4.2380000000000001e-01 2.9546373651069789e+01 1.8076281408970569e+01 7.1968789700730955e+00 1 4 2
3565 730 70 -8.4760000000000002e-01 1.4262594023890580e+01 1.2057711789574322e+01 7.3669855955130812e+00 -1 6 2
6944 1857 71 4.2380000000000001e-01 1.7657303336849075e+01 1.2518000349705929e+01 7.1297267992199869e+00 -1 4 1
3563 730 71 4.2380000000000001e-01 1.4939306798919073e+01 1.1920407893023711e+01 8.0903238519176739e+00 -1 6 2
3564 730 71 4.2380000000000001e-01 1.3485086877815146e+01 1.1447149746342394e+01 7.5176753516660044e+00 -1 6 2
1391 100 20 3.2000000000000001e-02 2.9733315896149879e+01 2.4685225013674728e+01 7.3056388323747177e+00 0 4 2
7149 1925 71 4.2380000000000001e-01 1.1856670865821783e+01 1.2529411801368948e+01 1.3955938700357553e+01 0 4 3
1110 80 67 -6.3100000000000001e-01 1.7692421517617056e+01 1.0170275016568231e+01 1.0794302594415345e+01 1 4 3
9068 2565 71 4.2380000000000001e-01 7.9615903868989832e+00 7.6764975001884190e+00 1.0822880220287027e+01 2 2 2
7259 1962 71 4.2380000000000001e-01 1.2126254560698282e+01 1.4636926898726799e+01 9.2900079892857210e+00 0 3 4
7260 1962 71 4.2380000000000001e-01 1.0570826110269588e+01 1.4343435448310510e+01 8.8885597428532996e+00 0 3 4
1107 80 64 1.5800000000000000e-01 1.7418443771453283e+01 8.9443154463979919e+00 1.1437763067354721e+01 1 4 3
4236 954 71 4.2380000000000001e-01 1.2798288101648593e+01 1.7197536022519216e+01 1.5457279076696258e+01 1 5 5
3558 728 71 4.2380000000000001e-01 1.4717209156388600e+01 1.8548914566932478e+01 1.4661545416184351e+01 0 2 1
1111 80 20 3.2000000000000001e-02 1.6838448242858846e+01 9.1838724627263026e+00 1.2295496048285379e+01 1 4 3
5512 1379 70 -8.4760000000000002e-01 7.5368484252348074e+00 1.6789225212212973e+01 8.2254532281001289e+00 3 4 2
4157 928 71 4.2380000000000001e-01 1.1476742065765931e+01 2.5228931251224985e+01 7.8584963406198707e+00 -2 5 2
7261 1962 70 -8.4760000000000002e-01 1.1256700774143990e+01 1.5057164488638772e+01 9.0306083346902959e+00 0 3 4
3138 588 71 4.2380000000000001e-01 1.0679887338226250e+01 1.6592995112861143e+01 8.1918662838481335e+00 -3 3 4
4120 915 70 -8.4760000000000002e-01 2.7000717268014899e+01 2.9659210254634878e+01 1.3076680310241478e+01 0 3 3
1029 74 67 -6.1099999999999999e-01 1.3014567369946683e+01 1.4243105136395208e+01 6.7410993221439020e+00 1 4 2
1511 108 21 3.9800000000000002e-01 1.7992597124363037e+01 1.6380580607498526e+01 1.3767563894185638e+01 0 3 3
5370 1332 71 4.2380000000000001e-01 2.8382785103355658e+01 2.8232270837570805e+01 6.7740750067315894e+00 -2 0 4
6946 1857 70 -8.4760000000000002e-01 1.7840929898532153e+01 1.3171181073222044e+01 7.8643340576630134e+00 -1 4 1
2462 363 71 4.2380000000000001e-01 1.6746996217696797e+01 1.3678481235429935e+01 9.2021273657041540e+00 -2 4 1
2464 363 70 -8.4760000000000002e-01 1.6473983515711623e+01 1.4152740886332776e+01 1.0039117580204008e+01 -2 4 1
1505 108 67 -6.1099999999999999e-01 1.8289905060070566e+01 1.6595933678793322e+01 1.4665554904231772e+01 0 3 3
6945 1857 71 4.2380000000000001e-01 1.8308928253752700e+01 1.3971482234417074e+01 7.4894915125989625e+00 -1 4 1
2463 363 71 4.2380000000000001e-01 1.7229478310381367e+01 1.4134650934833903e+01 1.0694030646399664e+01 -2 4 1
6826 1817 70 -8.4760000000000002e-01 1.4468557575942135e+01 1.4621954392690029e+01 1.3270633389797508e+01 0 1 2
3456 694 71 4.2380000000000001e-01 1.3479339806294924e+01 6.9630483068697515e+00 9.4014612024021655e+00 -1 6 3
1112 80 20 3.2000000000000001e-02 1.6906836669932943e+01 8.2443223645667274e+00 1.0760373153806341e+01 1 4 3
110 8 58 4.1699999999999998e-01 1.2166094604251086e+01 7.3243877272907465e+00 1.4446237611003021e+01 1 2 2
8637 2421 71 4.2380000000000001e-01 2.4429881478554407e+01 6.9374262556905535e+00 8.3026469914738517e+00 1 5 4
3185 604 71 4.2380000000000001e-01 1.2605012796686719e+01 8.3122242577119785e+00 1.2685159402639094e+01 -1 4 2
1023 74 64 1.5800000000000000e-01 1.4732128172905099e+01 1.5900937198429414e+01 7.1897649398507912e+00 1 4 2
1846 157 70 -8.4760000000000002e-01 1.0613489285122279e+01 6.8934277685350560e+00 1.1120922230102213e+01 1 3 4
3187 604 70 -8.4760000000000002e-01 1.3296599147351694e+01 8.1013961144131930e+00 1.3376007122146731e+01 -1 4 2
6824 1817 71 4.2380000000000001e-01 1.3488463264644331e+01 1.4820490206227591e+01 1.3273870918661011e+01 0 1 2
3025 550 70 -8.4760000000000002e-01 1.8862771526384293e+01 1.1450335003559481e+01 1.2725730088146566e+01 -1 4 2
1120 80 21 4.1699999999999998e-01 1.8034807407465223e+01 1.0791965649046535e+01 1.1498395520474396e+01 1 4 3
9063 2563 71 4.2380000000000001e-01 1.5571642811080396e+01 2.8332329455291116e+01 8.1059305482808828e+00 2 3 3
154 11 21 4.1699999999999998e-01 1.2668843597671998e+01 8.9902411236681790e+00 8.2774460792474294e+00 -1 4 2
6143 1590 71 4.2380000000000001e-01 1.7444318762453292e+01 1.6791856931782775e+01 9.2217814346680616e+00 3 2 2
5717 1448 71 4.2380000000000001e-01 7.5862156183453875e+00 1.1883312679617662e+01 1.4747202945445938e+01 -1 4 2
9159 2595 71 4.2380000000000001e-01 1.9360370916553443e+01 1.5788622026841301e+01 7.1476755291416207e+00 1 5 3
9619 2748 70 -8.4760000000000002e-01 8.3524311821418742e+00 1.8274431155907685e+01 1.0529371949952285e+01 0 4 4
3955 860 70 -8.4760000000000002e-01 7.9736730419929138e+00 1.4692672019174287e+01 1.0449473925543691e+01 0 5 3
9952 2859 70 -8.4760000000000002e-01 7.4968250343733853e+00 1.5444588275286254e+01 1.5045059081585375e+01 1 5 0
6825 1817 71 4.2380000000000001e-01 1.4670386213315943e+01 1.3928158250371720e+01 1.3961953234029568e+01 0 1 2
3186 604 71 4.2380000000000001e-01 1.3768337303060431e+01 7.2552432944558305e+00 1.3128016602013545e+01 -1 4 2
5510 1379 71 4.2380000000000001e-01 7.4622244185256514e+00 1.7224073926009673e+01 9.1228654126242539e+00 3 4 2
9456 2694 71 4.2380000000000001e-01 1.5165724394364441e+01 1.6565969892551404e+01 1.5021466361063906e+01 2 3 3
9808 2811 70 -8.4760000000000002e-01 1.4204279874711899e+01 1.8489249386238455e+01 1.1368994587471780e+01 1 3 2
9806 2811 71 4.2380000000000001e-01 1.4132137270853516e+01 1.8862508506024668e+01 1.2293918809358523e+01 1 3 2
1027 74 20 3.2000000000000001e-02 1.5312556089947273e+01 1.5175263154679680e+01 7.8550881858023267e+00 1 4 2
7928 2185 71 4.2380000000000001e-01 1.5718700848996299e+01 1.7931556479447075e+01 1.1249542158500251e+01 1 3 4
8266 2297 70 -8.4760000000000002e-01 2.1871600511258698e+01 1.0978059909784577e+01 1.5178287298364650e+01 0 5 2
4772 1133 71 4.2380000000000001e-01 1.0223801150177824e+01 1.8892835386080534e+01 1.3328187783022404e+01 1 5 2
3457 694 70 -8.4760000000000002e-01 1.2831645887079539e+01 7.6672431992485599e+00 9.6923441803888721e+00 -1 6 3
4774 1133 70 -8.4760000000000002e-01 9.5600271698180723e+00 1.8170401611248508e+01 1.3134524940466573e+01 1 5 2
4237 954 70 -8.4760000000000002e-01 1.1802490873074746e+01 1.7269058615594112e+01 1.5514579611908607e+01 1 5 5
7306 1977 70 -8.4760000000000002e-01 1.1636863826184950e+01 1.7798772210962372e+01 1.0186796974581595e+01 0 4 1
7305 1977 71 4.2380000000000001e-01 1.0697373696962876e+01 1.8049320903668651e+01 1.0420451754500290e+01 0 4 1
7304 1977 71 4.2380000000000001e-01 1.1724407520278795e+01 1.6802626298010821e+01 1.0180432263287024e+01 0 4 1
4235 954 71 4.2380000000000001e-01 1.1468400778611045e+01 1.7863735711869630e+01 1.4783310981632679e+01 1 5 5
5511 1379 71 4.2380000000000001e-01 8.4751234212259963e+00 1.6875190747183638e+01 7.8903998761135430e+00 3 4 2
7505 2044 71 4.2380000000000001e-01 2.5232566122724919e+01 1.2584397187894695e+01 8.4467033410551462e+00 1 5 3
1028 74 20 3.2000000000000001e-02 1.4078199207071989e+01 1.6411579908981178e+01 7.8647022256661625e+00 1 4 2
2947 524 70 -8.4760000000000002e-01 7.0199825101199762e+00 1.4349137766573115e+01 7.0649009474014584e+00 -1 3 3
9486 2704 71 4.2380000000000001e-01 1.5583896992668487e+01 2.6005481527583488e+01 6.8824886776797465e+00 2 4 3
9617 2748 71 4.2380000000000001e-01 8.6733195272676564e+00 1.8324332772582267e+01 1.1475179508930614e+01 0 4 4
3921 849 71 4.2380000000000001e-01 6.7289490101713119e+00 6.9583179469105092e+00 7.6715533559225300e+00 -1 5 0
9667 2764 70 -8.4760000000000002e-01 2.8986182122040649e+01 1.3795571779046675e+01 1.5194059445663701e+01 0 4 5
1506 108 20 3.1000000000000000e-02 1.8037371185873042e+01 1.8423785432319505e+01 1.3905340546826071e+01 0 3 3
4212 946 71 4.2380000000000001e-01 1.3012943085616314e+01 2.9566552204429236e+01 1.4537499246265327e+01 1 4 5
9457 2694 70 -8.4760000000000002e-01 1.4825441060204666e+01 1.7166444026367078e+01 1.5745102205031701e+01 2 3 3
144 11 67 -6.3100000000000001e-01 1.2633463832455639e+01 9.7915656794602270e+00 7.6662641972816941e+00 -1 4 2
9665 2764 71 4.2380000000000001e-01 2.9912600231596933e+01 1.4135196743576691e+01 1.5031532093298024e+01 0 4 5
10052 2893 71 4.2380000000000001e-01 2.0306531762213854e+01 8.1151877123010046e+00 1.4389370429759870e+01 0 4 4
9940 2855 70 -8.4760000000000002e-01 2.9896381346216426e+01 1.7156625226101959e+01 7.0187276534990852e+00 1 4 2
4689 1105 71 4.2380000000000001e-01 1.1352049466164081e+01 2.9452329788451841e+01 1.3189693602094982e+01 -3 2 2
5719 1448 70 -8.4760000000000002e-01 7.3836494702186082e+00 1.2772717116137443e+01 1.4337401054077493e+01 -1 4 2
9951 2859 71 4.2380000000000001e-01 8.3506707614655280e+00 1.5485522098728058e+01 1.5563983620676463e+01 1 5 0
2443 356 70 -8.4760000000000002e-01 2.2936441540427868e+01 2.9898707442571521e+01 8.6187844886935068e+00 0 5 2
2127 251 71 4.2380000000000001e-01 1.6090860031202133e+01 7.6255289721775288e+00 1.5454869166521297e+01 0 5 3
7700 2109 71 4.2380000000000001e-01 2.8129009544493986e+01 2.9825052556613777e+01 8.5536672769377233e+00 0 2 3
10166 2931 71 4.2380000000000001e-01 2.3493920071576294e+01 2.5990767051597931e+01 1.1431924272990816e+01 0 4 4
10202 2943 71 4.2380000000000001e-01 2.8442719594123197e+01 1.6982522840674129e+01 1.4878217421550568e+01 -1 3 5
4198 941 70 -8.4760000000000002e-01 7.4596795359929118e+00 2.5248290913052163e+01 1.3440465423529638e+01 1 4 2
869 63 64 1.5800000000000000e-01 1.8881701823344542e+01 7.6737230023640084e+00 7.8391603421472356e+00 0 4 4
1036 74 21 4.1699999999999998e-01 1.5832536986044108e+01 1.7750533314485558e+01 7.0399629807618753e+00 1 4 2
4690 1105 70 -8.4760000000000002e-01 1.0495372617467275e+01 2.9800833581489979e+01 1.2809350781863808e+01 -3 2 2
875 63 67 -6.1099999999999999e-01 2.0930527571641704e+01 8.9260134019170607e+00 6.9559068081670876e+00 0 4 4
7148 1925 71 4.2380000000000001e-01 1.1595543899515963e+01 1.2805654562659734e+01 1.5544068986858067e+01 0 4 3
3087 571 71 4.2380000000000001e-01 2.9498463175199156e+01 8.5996161202319925e+00 7.1243237967567747e+00 -1 1 2
3139 588 70 -8.4760000000000002e-01 1.0134755941757582e+01 1.7227277924629917e+01 7.6436610781028316e+00 -3 3 4
4258 961 70 -8.4760000000000002e-01 2.6658160247030875e+01 2.8475399553302541e+01 9.5172645391397666e+00 -1 3 2
8303 2310 71 4.2380000000000001e-01 2.1965584604710429e+01 1.5661577303923364e+01 1.3741067015304180e+01 0 3 4
5718 1448 71 4.2380000000000001e-01 7.4810849858752224e+00 1.2711957485254452e+01 1.3344009893908790e+01 -1 4 2
7937 2188 71 4.2380000000000001e-01 7.0950594838647323e+00 1.3545933176798536e+01 1.1364776878438951e+01 0 3 4
4473 1033 71 4.2380000000000001e-01 2.3750912393976229e+01 7.4024981914747805e+00 1.2225855383467334e+01 -1 4 1
1114 80 20 3.1000000000000000e-02 1.9254533244581456e+01 8.0789694297989865e+00 1.0874595948424828e+01 1 4 3
4118 915 71 4.2380000000000001e-01 2.6823401884652085e+01 2.8678542524913368e+01 1.3159510522767789e+01 0 3 3
3024 550 71 4.2380000000000001e-01 1.9539326279266938e+01 1.2174258996485275e+01 1.2590749851335268e+01 -1 4 2
1113 80 67 -6.1099999999999999e-01 1.9398285374325482e+01 8.7925966872476629e+00 1.2907577236304697e+01 1 4 3
1119 80 21 3.9800000000000002e-01 1.9152078814625607e+01 9.7443731714777133e+00 1.3000816308156690e+01 1 4 3
1108 80 12 1.6600000000000001e-01 1.8682747055228070e+01 8.2209491934367733e+00 1.1826219441603941e+01 1 4 3
3942 856 71 4.2380000000000001e-01 2.6189957813771528e+01 7.3811135024542258e+00 7.1683083498801343e+00 0 4 1
4728 1118 71 4.2380000000000001e-01 2.9745709628593289e+01 2.0360807785764187e+01 1.1950351306340156e+01 -2 4 2
7506 2044 71 4.2380000000000001e-01 2.6600396283476279e+01 1.3420981857275095e+01 8.1371522058506542e+00 1 5 3
4474 1033 70 -8.4760000000000002e-01 2.2887453808146439e+01 7.8170454987935427e+00 1.1938452248007643e+01 -1 4 1
6314 1647 71 4.2380000000000001e-01 2.2122359127675459e+01 2.0193585128501944e+01 6.7235076036540864e+00 1 4 2
4879 1168 70 -8.4760000000000002e-01 2.8975227328991846e+01 1.1317966225513386e+01 7.9459667562074268e+00 0 1 3
6145 1590 70 -8.4760000000000002e-01 1.8332819015154541e+01 1.6506847696551318e+01 8.8621312001793004e+00 3 2 2
4472 1033 71 4.2380000000000001e-01 2.2263817779840053e+01 7.1024321400963641e+00 1.1621566436250207e+01 -1 4 1
6144 1590 71 4.2380000000000001e-01 1.8534779765802533e+01 1.5577378832701838e+01 9.1708568721425472e+00 3 2 2
8128 2251 70 -8.4760000000000002e-01 2.7607009193802995e+01 1.1469085154074126e+01 1.3545177038618519e+01 0 3 1
3537 721 71 4.2380000000000001e-01 2.5398972823437838e+01 1.1346171704297603e+01 1.0156673587932133e+01 0 5 3
9023 2550 71 4.2380000000000001e-01 2.2549661373718898e+01 9.4731832404033014e+00 1.2323128986584209e+01 0 3 3
4377 1001 71 4.2380000000000001e-01 2.4349206187993726e+01 1.5900555492539583e+01 8.1317899073947011e+00 -1 4 3
4378 1001 70 -8.4760000000000002e-01 2.5347673516728726e+01 1.5849232110637603e+01 8.1108209445667239e+00 -1 4 3
4837 1154 70 -8.4760000000000002e-01 2.2231785932340628e+01 1.0899386955280747e+01 9.5854482008830821e+00 1 2 2
4835 1154 71 4.2380000000000001e-01 2.1312342901534471e+01 1.0794091562170120e+01 9.2065692268043371e+00 1 2 2
5045 1224 71 4.2380000000000001e-01 2.2343184901923141e+01 8.7190838604272152e+00 8.4255077573449100e+00 -1 5 2
8126 2251 71 4.2380000000000001e-01 2.7802859516762393e+01 1.1886319398872136e+01 1.4432628152050246e+01 0 3 1
2988 538 71 4.2380000000000001e-01 2.5038353216194185e+01 8.9034744262294829e+00 1.3576582739882983e+01 -1 5 0