LAMMPS data file via write_data, version 21 Feb 2017, timestep = 2000000

10411 atoms
71 atom types
7399 bonds
254 bond types
5512 angles
155 angle types
3375 dihedrals
47 dihedral types
125 impropers
5 improper types

6.7239920928183565e+00 5.3276007907182979e+01 xlo xhi
6.7239920928183565e+00 5.3276007907182979e+01 ylo yhi
6.7239920928183565e+00 5.3276007907182979e+01 zlo zhi

Masses

1 15.9994
2 15.9994
3 15.9994
4 15.9994
5 15.9994
6 14.0067
7 14.0067
8 14.0067
9 14.0067
10 14.0067
11 14.0067
12 12.011
13 12.011
14 13.019
15 14.027
16 15.035
17 16.043
18 14.027
19 12.011
20 1.008
21 1.008
22 1
23 32.06
24 63.546
25 63.546
26 55.847
27 65.37
28 24.305
29 40.08
30 39.948
31 18.9984
32 35.453
33 79.904
34 12.011
35 15.9994
36 22.9898
37 35.453
38 12.011
39 35.453
40 1.008
41 32.06
42 12.011
43 15.9994
44 12.011
45 35.453
46 18.9984
47 12.011
48 13.019
49 15.9994
50 12.011
51 15.9994
52 14.0067
53 15.035
54 126.904
55 35.453
56 10.811
57 78.96
58 1.008
59 35.453
60 79.904
61 15.9994
62 14.0067
63 12.011
64 12.011
65 14.0067
66 14.0067
67 15.9994
68 28.08
69 30.9738
70 15.9994
71 1.008

Pair Coeffs # lj/cut/coul/long/gpu

1 0.305714 2.76007
2 0.412295 2.62585
3 0.203061 2.95484
4 0.252656 2.84916
5 0.155394 3.16565
6 0.152915 3.13647
7 0.0700622 3.5722
8 0.152915 3.13647
9 0.104651 3.34113
10 0.152915 3.13647
11 0.152915 3.13647
12 0.0663015 3.58118
13 0.00167194 6.63949
14 0.0226791 5.01918
15 0.098122 4.07038
16 0.207254 3.74792
17 0.302012 3.70995
18 0.11455 3.95474
19 0.120138 3.74119
20 0.0282937 2.37341
21 0 0
22 0 0
23 0.455513 3.30769
24 2.039 1.5184
25 2.039 1.5184
26 0 0
27 1.107 1.68112
28 0.0747249 1.93323
29 0.121156 2.81311
30 0.238148 3.40984
31 0.10897 2.94006
32 0.300087 3.46982
33 0.69792 3.6508
34 0.243126 3.60124
35 0.131455 3.17694
36 0.00509651 3.12117
37 0.162149 4.09571
38 0.101741 3.40006
39 0.299511 3.44
40 0.0197496 2.20219
41 0.310038 3.55995
42 0.207254 3.74792
43 0.409923 2.63004
44 0.0544087 3.7739
45 0.270582 3.44757
46 0.0828967 3.07717
47 0.0970049 3.3611
48 0.117014 3.91992
49 0.203061 2.95484
50 0.105027 3.74991
51 0.210013 2.95998
52 0.169966 3.25006
53 0.207254 3.74792
54 0.836845 3.84961
55 0.329921 3.26983
56 0.0663015 3.58118
57 0.455513 3.30769
58 0 0
59 0.329921 3.26983
60 0.580843 3.89995
61 0.119432 3.40025
62 0.1399 3.9019
63 0.0734574 3.52053
64 0.245018 2.81144
65 0.142655 4.06776
66 0.219779 3.64529
67 0.119497 3.1
68 0.584786 3.38557
69 0.584786 3.38557
70 0.1553 3.166
71 0 0

Bond Coeffs # harmonic

1 375.239 1
2 446.941 1
3 349.274 1.09
4 1109.29 1.12
5 600.242 1.23
6 500.418 1.25
7 499.732 1.32
8 375.003 1.33
9 448.144 1.33
10 498.877 1.33
11 450.617 1.34
12 502.116 1.34
13 450.906 1.36
14 500.679 1.38
15 399.904 1.39
16 498.726 1.39
17 400.057 1.4
18 399.792 1.43
19 450.132 1.43
20 300.222 1.435
21 449.843 1.47
22 299.976 1.48
23 399.968 1.48
24 450.226 1.48
25 450.108 1.5
26 299.844 1.52
27 400.034 1.53
28 299.851 1.61
29 299.727 1.63
30 205.976 1.78
31 449.816 1.78
32 449.828 1.83
33 300.045 1.87
34 59.9679 1.98
35 60.0382 2
36 500.307 2.04
37 63.0357 2.21
38 554.493 1
39 349.928 1.1
40 599.794 1.758
41 449.829 1.53
42 444.341 1.93799
43 599.679 1.76
44 501.026 1.265
45 448.656 1.35
46 555.129 1.63299
47 350.249 2.33839
48 600.161 2.90283
49 445.884 2.79388
50 443.815 2.91189
51 409.328 2.077
52 600.173 2.87407
53 88.4321 1.1
54 56.1663 1.84
55 513.862 1.01
56 310.707 1.41
57 442.161 1.02
58 239.006 1.46
59 513.862 1.29
60 442.161 0.972
61 812.62 1.22
62 466.061 1.22
63 239.006 1.54
64 179.254 1.56
65 227.055 1.54
66 106.358 1.76
67 131.453 1.69
68 203.155 1.75
69 203.155 1.51
70 143.403 1.57
71 179.254 0.971
72 191.205 1.5
73 262.906 1.45
74 549.713 1.52
75 83.652 1.03
76 191.205 1.74
77 191.205 1.72
78 227.055 1.64
79 203.155 1.67
80 191.205 1.66
81 215.105 1.65
82 513.862 1.31
83 155.354 1.01
84 35.8509 1.89
85 101.577 1.93
86 155.354 1.36
87 167.304 1.79
88 114.723 1.35
89 155.354 1.39
90 203.155 1.38
91 227.055 0.983
92 155.354 1.3
93 418.26 1.08
94 155.354 1.9
95 1314.53 1.16
96 143.403 1.8
97 155.354 1.42
98 478.011 0.984
99 119.503 1.08
100 119.503 1.91
101 418.26 1.03
102 525.813 1.28
103 131.453 1.22
104 143.403 1.11
105 1195.03 1.21
106 466.061 1.07
107 956.023 1.21
108 693.117 1.21
109 87.2371 1.85
110 394.359 1.11
111 109.943 2.09
112 131.453 1.82
113 99.1874 1.96
114 56.1663 1.86
115 167.304 1.21
116 167.304 1.28
117 143.403 1.71
118 131.453 1.6
119 454.111 1.21
120 41.826 1.61
121 131.453 1.94
122 155.354 1.59
123 143.403 2.1
124 119.503 2.12
125 57.3614 2.13
126 203.155 1.26
127 1195.03 1.14
128 191.205 1.23
129 788.719 1.3
130 239.006 1.31
131 59.7514 2.04
132 82.457 1.34
133 621.415 0.938
134 310.707 1.16
135 34.6558 2.07
136 60.9465 1.16
137 93.2122 2.16
138 43.021 2.23
139 23.9006 2.05
140 896.272 1.19
141 728.967 1.47
142 394.359 1.57
143 1195.03 1.18
144 54.9713 1.87
145 1063.58 1.17
146 215.105 1.13
147 59.7514 2.02
148 179.254 1.07
149 250.956 1.14
150 155.354 1.06
151 537.763 1.46
152 812.62 1.17
153 92.0172 2.15
154 239.006 1.04
155 60.9465 1.4
156 1314.53 1.11
157 466.061 1.56
158 752.868 1.49
159 501.912 1.54
160 35.8509 2.17
161 35.8509 2.27
162 669.216 1.45
163 764.818 1.25
164 848.47 1.27
165 561.663 1.16
166 1434.03 1.14
167 501.912 1.17
168 537.763 1.19
169 920.172 1.14
170 227.055 1.24
171 1434.03 1.13
172 89.6272 2.91
173 57.3614 2.24
174 418.26 0.743
175 239.006 1.2
176 111.138 2.33
177 96.7973 2.42
178 83.652 1.32
179 1159.18 1.2
180 1314.53 1.2
181 430.21 1.58
182 53.7763 1.47
183 1.55354 2.77
184 5.13862 2.25
185 100.382 2.18
186 50.1912 1.52
187 93.2122 2.19
188 27.4857 1.48
189 1912.05 1.07
190 8.60421 2.8
191 87.2371 2.52
192 0.669216 2.79
193 812.62 1.16
194 1.79254 2.68
195 406.31 1.59
196 119.503 1.18
197 34.6558 2.54
198 1792.54 1.1
199 824.57 1.29
200 33.4608 2.44
201 107.553 2.41
202 112.333 2.36
203 20.3155 1.43
204 2.27055 2.57
205 19.1205 2.47
206 0.764818 2.71
207 1553.54 1.12
208 3.70459 2.75
209 501.912 1.14
210 0.717017 2.86
211 10.5163 2.64
212 1912.05 0.985
213 1.91205 2.61
214 7.40918 2.62
215 59.7514 2.46
216 3.58509 2.66
217 1.31453 2.72
218 58.5564 1.63
219 573.614 1.12
220 37.0459 2.32
221 16.7304 1.44
222 1553.54 1.16
223 7.17017 2.69
224 10.0382 2.49
225 3.22658 2.92
226 0.82457 2.29
227 9.79924 2.4
228 1.03967 2.37
229 1.55354 2.94
230 5.85564 2.95
231 1.67304 2.96
232 0.0131453 2.56
233 5.25813 2.59
234 15.5354 2.38
235 836.52 1.12
236 1.91205 2.5
237 2.39006 2.3
238 585.564 1.04
239 3.34608 2.99
240 0.967973 2.34
241 1.07553 2.98
242 2.27055 2.74
243 1063.58 1.16
244 812.62 1.5
245 1.31453 2.84
246 0.322658 2.82
247 908.222 1.23
248 466.061 1.05
249 3.34608 2.88
250 1434.03 1.18
251 1673.04 1.15
252 6.33365 2.9
253 0 0
254 100 1

Angle Coeffs # harmonic

1 45.3116 90
2 50.0917 90
3 47.7712 96
4 54.9551 100
5 47.5559 103
6 55.0345 104
7 50.1709 108
8 30.1731 109.5
9 33.8897 109.5
10 40.2609 109.5
11 45.0394 109.5
12 47.694 109.5
13 55.1272 109.5
14 47.635 109.6
15 55.1139 111
16 55.0997 113
17 4.824 115
18 45.0699 115
19 59.7937 115
20 44.8085 116
21 59.7719 116
22 60.1639 117
23 34.88 120
24 39.8095 120
25 45.1871 120
26 47.4278 120
27 50.1166 120
28 59.9756 120
29 69.8346 120
30 60.0726 121
31 60.091 122
32 34.8146 123
33 59.8929 124
34 30.0075 125
35 60.0779 125
36 44.9139 126
37 49.998 126
38 60.166 126
39 50.1189 132
40 47.5187 155
41 28.4971 180
42 45.9951 109.5
43 52.4767 107.57
44 65.472 111.3
45 55.0189 97.4
46 55.0247 106.75
47 47.5019 108.53
48 65.5335 109.5
49 54.9566 107.6
50 47.4817 109.5
51 54.9931 110.3
52 55.0234 111.4
53 60.044 117.2
54 60.0023 121.4
55 48.24 180
56 180.46 109
57 192.229 106
58 145.153 126
59 145.153 96.2
60 156.922 114
61 203.998 119
62 239.306 130
63 298.152 107
64 156.922 134
65 239.306 101
66 286.382 113
67 368.766 134
68 356.997 119
69 333.459 126
70 251.075 89.6
71 380.536 114
72 286.382 135
73 145.153 88.3
74 133.384 60
75 380.536 179
76 251.075 180
77 470.766 178
78 47.0766 59.9
79 47.0766 60.3
80 251.075 124
81 706.149 118
82 117.691 144
83 627.688 123
84 470.766 118
85 333.459 94.8
86 90.2301 175
87 156.922 82.8
88 117.691 77.6
89 239.306 145
90 251.075 50.8
91 380.536 104
92 262.844 84.4
93 215.768 63.3
94 215.768 61
95 298.152 173
96 192.229 173
97 82.384 50.9
98 431.535 127
99 62.7688 67.8
100 156.922 180
101 588.457 118
102 30.1731 110
103 227.537 94.8
104 431.535 173
105 34.5228 78.5
106 70.6149 138
107 70.6149 168
108 156.922 167
109 18.046 149
110 333.459 144
111 356.997 148
112 321.69 144
113 356.997 148
114 321.69 147
115 333.459 144
116 5099.96 60.8
117 1451.53 68
118 298.152 161
119 156.922 155
120 309.921 154
121 215.768 75.3
122 309.921 64.7
123 549.227 173
124 3334.59 45.8
125 863.071 123
126 549.227 123
127 470.766 166
128 380.536 166
129 203.998 139
130 66.6918 161
131 7.45379 44.9
132 25.1075 84.8
133 192.229 161
134 333.459 70.4
135 627.688 173
136 1.92229 51.6
137 21.5768 73.3
138 7.45379 174
139 470.766 132
140 145.153 69.9
141 15.6922 144
142 1922.29 97.9
143 392.305 155
144 588.457 104
145 117.691 149
146 509.996 157
147 286.382 166
148 333.459 89.8
149 392.305 79.1
150 6669.18 45.2
151 470.766 101
152 745.379 125
153 168.691 49.6
154 509.996 112
155 100 109.47

Dihedral Coeffs # harmonic

1 0.638145 -1 1
2 0.81501 -1 1
3 1.18786 -1 1
4 1.40057 -1 1
5 2.2347 -1 1
6 2.2586 -1 1
7 0.666826 1 1
8 1.27868 1 1
9 0.365679 -1 2
10 1.40057 -1 2
11 1.69933 -1 2
12 3.9914 -1 2
13 5.73614 -1 2
14 8.00669 -1 2
15 9.99044 -1 2
16 0 1 2
17 0.0999044 1 2
18 0.499522 1 2
19 0.750478 1 2
20 1.21654 1 2
21 3.9914 1 2
22 0.250956 1 3
23 0.301147 1 3
24 0.310707 1 3
25 0.604685 1 3
26 0.700287 1 3
27 0.762428 1 3
28 0.872371 1 3
29 0.901052 1 3
30 0.932122 1 3
31 0.999044 1 3
32 1.12094 1 3
33 1.30019 1 3
34 1.41491 1 3
35 1.83795 1 3
36 2.06023 1 3
37 2.27055 1 3
38 0 1 4
39 0.239006 -1 6
40 0.239006 1 6
41 0.901052 1 6
42 0.83652 -1 2
43 0.669216 1 3
44 0.167304 -1 6
45 0.0956023 1 6
46 0.239006 -1 3
47 0 1 1

Improper Coeffs # harmonic

1 20.0075 0
2 40.0151 35.2644
3 80.0302 0
4 20.0075 180
5 40.0151 -35.2644

Atoms # full

2515 380 70 -8.4760000000000002e-01 1.7469761639560442e+01 1.1614774882105902e+01 1.1844074031942405e+01 0 -1 0
2017 214 70 -8.4760000000000002e-01 1.3829592178305001e+01 1.1298800959229151e+01 1.0573559355317892e+01 0 -1 0
2016 214 71 4.2380000000000001e-01 1.4662033764293939e+01 1.1833865107488716e+01 1.0446113015042235e+01 0 -1 0
9932 2853 71 4.2380000000000001e-01 1.3278091733019650e+01 1.5977406010045410e+01 1.2534893980314365e+01 -1 0 0
9934 2853 70 -8.4760000000000002e-01 1.2752580189330283e+01 1.6726438270259965e+01 1.2948599937940315e+01 -1 0 0
8545 2390 70 -8.4760000000000002e-01 8.3634679072904223e+00 1.1404404278654031e+01 1.5126640593202287e+01 2 0 1
4530 1052 71 4.2380000000000001e-01 7.9901471013624690e+00 1.4360047316922987e+01 1.4561052837458558e+01 -1 0 2
5412 1346 71 4.2380000000000001e-01 1.3267632632633340e+01 1.4159718880137936e+01 1.0746977459735847e+01 1 0 0
5413 1346 70 -8.4760000000000002e-01 1.4033309512475002e+01 1.4577487787723225e+01 1.1236716930102592e+01 1 0 0
5411 1346 71 4.2380000000000001e-01 1.4888422330055342e+01 1.4373981877909639e+01 1.0758144496992646e+01 1 0 0
7760 2129 71 4.2380000000000001e-01 1.2252679813157826e+01 9.4170131271880226e+00 1.4904034000184133e+01 1 -1 1
5852 1493 71 4.2380000000000001e-01 9.3709131556593412e+00 1.5374577954314317e+01 1.0284138304368694e+01 0 1 -1
7762 2129 70 -8.4760000000000002e-01 1.1343035431229683e+01 9.3410428665207643e+00 1.4492281642892275e+01 1 -1 1
7761 2129 71 4.2380000000000001e-01 1.0655550379877383e+01 9.3069785656312458e+00 1.5212324708082214e+01 1 -1 1
5854 1493 70 -8.4760000000000002e-01 8.8013220772532872e+00 1.5962068646076823e+01 1.0854778887714186e+01 0 1 -1
2015 214 71 4.2380000000000001e-01 1.3100638311370577e+01 1.1662064760698271e+01 9.9906869524907478e+00 0 -1 0
5853 1493 71 4.2380000000000001e-01 7.8869654296292637e+00 1.5567013174707396e+01 1.0927901777619837e+01 0 1 -1
5826 1484 71 4.2380000000000001e-01 1.4593424466129875e+01 9.7882199503981866e+00 1.0150851534009638e+01 0 1 0
5328 1318 71 4.2380000000000001e-01 1.1665440499930568e+01 1.3212351445544858e+01 9.4030764670116973e+00 0 1 1
4885 1170 70 -8.4760000000000002e-01 1.4497697106056190e+01 9.8717260759889403e+00 1.4983200495223109e+01 -1 0 0
8062 2229 70 -8.4760000000000002e-01 1.1445250433958430e+01 1.3259589772272516e+01 1.2749973594508052e+01 1 0 1
8061 2229 71 4.2380000000000001e-01 1.2385442343758363e+01 1.3182361683862064e+01 1.3078315038263193e+01 1 0 1
5827 1484 70 -8.4760000000000002e-01 1.4883689035036721e+01 8.8574810980191163e+00 9.9340162855533389e+00 0 1 0
5825 1484 71 4.2380000000000001e-01 1.4599011415793596e+01 8.2390021468251966e+00 1.0664588482408050e+01 0 1 0
8848 2491 70 -8.4760000000000002e-01 1.4527173421201734e+01 7.7922980725786468e+00 1.2684301235790109e+01 1 1 0
2514 380 71 4.2380000000000001e-01 1.7021949893279800e+01 1.1835266349094050e+01 1.0982443782715695e+01 0 -1 0
1914 180 71 4.2380000000000001e-01 1.1689927368312256e+01 9.6894450048639111e+00 1.2525188543082082e+01 -1 0 1
1913 180 71 4.2380000000000001e-01 1.2635184807349930e+01 1.0101356858200937e+01 1.1255428117024403e+01 -1 0 1
1915 180 70 -8.4760000000000002e-01 1.1888202798599444e+01 9.5072832822198876e+00 1.1558946834576542e+01 -1 0 1
2028 218 71 4.2380000000000001e-01 1.4546342220342604e+01 1.3167265483714255e+01 1.4507174187174025e+01 1 -1 -2
2029 218 70 -8.4760000000000002e-01 1.3788388721499411e+01 1.3430509511820956e+01 1.3914605588403575e+01 1 -1 -2
2027 218 71 4.2380000000000001e-01 1.4143665371791037e+01 1.3875127474579241e+01 1.3098405817317071e+01 1 -1 -2
2434 353 70 -8.4760000000000002e-01 1.0123565853338798e+01 1.6029361116226362e+01 1.3068015879374716e+01 0 0 1
8060 2229 71 4.2380000000000001e-01 1.0825430687180525e+01 1.2867354768068189e+01 1.3430412654615896e+01 1 0 1
2458 361 70 -8.4760000000000002e-01 8.1402857513405618e+00 1.1539040735545388e+01 1.0249293409028233e+01 -1 0 -1
2845 490 70 -8.4760000000000002e-01 1.0055681653168243e+01 1.3325813212332037e+01 1.0283283165542022e+01 0 0 1
8847 2491 71 4.2380000000000001e-01 1.4264828873228069e+01 8.5586262957215595e+00 1.3271345081217401e+01 1 1 0
7306 1977 70 -8.4760000000000002e-01 9.2350647972004385e+00 9.6362042280961120e+00 8.6817928695608462e+00 -1 1 -1
7305 1977 71 4.2380000000000001e-01 1.0010783322454810e+01 9.9578686340642051e+00 8.1414706599583067e+00 -1 1 -1
2843 490 71 4.2380000000000001e-01 1.0559388028051313e+01 1.3213372361529020e+01 1.1139052449391325e+01 0 0 1
8846 2491 71 4.2380000000000001e-01 1.5441945158348158e+01 7.4755294505046086e+00 1.2935744185174730e+01 1 1 0
3797 808 71 4.2380000000000001e-01 1.6139659539339185e+01 9.7566326642480909e+00 9.0776781634754791e+00 0 1 0
7304 1977 71 4.2380000000000001e-01 8.8229008419623920e+00 1.0404898914667758e+01 9.1700641491120241e+00 -1 1 -1
8353 2326 70 -8.4760000000000002e-01 7.4904598434464251e+00 1.0464360611497526e+01 1.2611133218995366e+01 -1 1 -1
6388 1671 70 -8.4760000000000002e-01 1.6770566047907437e+01 1.5038617608919635e+01 1.0311710540664201e+01 1 1 1
6387 1671 71 4.2380000000000001e-01 1.7593757477215107e+01 1.5440261553177992e+01 9.9095506205486714e+00 1 1 1
3042 556 71 4.2380000000000001e-01 1.1301934284657360e+01 7.7830349664532497e+00 1.3844431323232094e+01 0 -1 2
3090 572 71 4.2380000000000001e-01 8.4632285365843725e+00 6.9194968350218424e+00 1.4832659958757484e+01 1 1 1
2236 287 70 -8.4760000000000002e-01 1.3597726540421874e+01 1.9681517277668785e+01 7.0848057012103212e+00 0 1 0
8351 2326 71 4.2380000000000001e-01 6.9053888083322450e+00 9.6830179829877956e+00 1.2821464340169969e+01 -1 1 -1
2844 490 71 4.2380000000000001e-01 9.4212249426845087e+00 1.2563147857123887e+01 1.0169598900937652e+01 0 0 1
4529 1052 71 4.2380000000000001e-01 8.6312184039307240e+00 1.2990094897016371e+01 1.3956625205885061e+01 -1 0 2
2433 353 71 4.2380000000000001e-01 9.6016428836200802e+00 1.6211492430904247e+01 1.2230558602893518e+01 0 0 1
2432 353 71 4.2380000000000001e-01 9.9387863895420914e+00 1.5093609610812750e+01 1.3378480047970335e+01 0 0 1
2456 361 71 4.2380000000000001e-01 7.3261775994618148e+00 1.2076260292973881e+01 1.0012786588146444e+01 -1 0 -1
2457 361 71 4.2380000000000001e-01 7.9801902918507865e+00 1.1037386833269647e+01 1.1096430431047789e+01 -1 0 -1
10407 3011 71 4.2380000000000001e-01 1.4142613204618746e+01 1.6376488867119718e+01 1.0156436235235981e+01 -1 1 0
10406 3011 71 4.2380000000000001e-01 1.5272929272245261e+01 1.6367089398379626e+01 8.9792909290650904e+00 -1 1 0
6195 1607 71 4.2380000000000001e-01 1.0725954948702963e+01 8.6322043906905872e+00 8.9847172699388658e+00 0 0 1
6399 1675 71 4.2380000000000001e-01 1.7971934391092113e+01 1.0847597432394332e+01 1.3877698628372507e+01 0 -1 1
9287 2638 71 4.2380000000000001e-01 2.9626760183975289e+01 2.8607023462254404e+01 1.0416254358084316e+01 -1 0 1
2513 380 71 4.2380000000000001e-01 1.7608923788353152e+01 1.0628622468192397e+01 1.1908014287286072e+01 0 -1 0
10408 3011 70 -8.4760000000000002e-01 1.4570584927765930e+01 1.6918436410639636e+01 9.4327419685648763e+00 -1 1 0
3798 808 71 4.2380000000000001e-01 1.7691322343076319e+01 9.8665112334696836e+00 8.5611977311794263e+00 0 1 0
3799 808 70 -8.4760000000000002e-01 1.6785117175485695e+01 1.0296435991342618e+01 8.5354430293009216e+00 0 1 0
8685 2437 71 4.2380000000000001e-01 7.8479326509893452e+00 1.4087364030375859e+01 6.9527938612864002e+00 1 0 0
4531 1052 70 -8.4760000000000002e-01 8.8227820349129971e+00 1.3935047023229922e+01 1.4204348383557701e+01 -1 0 2
76 6 20 3.2000000000000001e-02 1.8133491236589869e+01 7.1039402926375548e+00 8.8939172990483826e+00 0 1 0
4446 1024 71 4.2380000000000001e-01 1.3736340963481648e+01 1.7515283093576748e+01 1.4218987978907238e+01 0 0 0
1851 159 71 4.2380000000000001e-01 9.7404887032384568e+00 1.7591126521886984e+01 1.0030675248099923e+01 1 1 0
1965 197 71 4.2380000000000001e-01 1.6355310896389366e+01 1.2406666618723744e+01 8.6582193036140289e+00 1 -1 1
7476 2034 71 4.2380000000000001e-01 1.7350989507279010e+01 1.5918921963896480e+01 1.3241784472602069e+01 0 0 1
9933 2853 71 4.2380000000000001e-01 1.1808368626839762e+01 1.6432893300840583e+01 1.3093724710322876e+01 -1 0 0
7477 2034 70 -8.4760000000000002e-01 1.6663830409753306e+01 1.6431525862005582e+01 1.2725227656633315e+01 0 0 1
8544 2390 71 4.2380000000000001e-01 9.1026133947094525e+00 1.1908687684022201e+01 1.5573623054894712e+01 2 0 1
9261 2629 71 4.2380000000000001e-01 7.8375597860437045e+00 1.7124440929797998e+01 9.6026620428462852e+00 0 -1 2
1966 197 70 -8.4760000000000002e-01 1.5787107811477215e+01 1.2827208739962618e+01 9.3652128091421289e+00 1 -1 1
1964 197 71 4.2380000000000001e-01 1.6218915317736190e+01 1.3664528295330310e+01 9.6907259501041096e+00 1 -1 1
8352 2326 71 4.2380000000000001e-01 7.9888279733345495e+00 1.0742195585139719e+01 1.3434958181575890e+01 -1 1 -1
3541 722 70 -8.4760000000000002e-01 1.5697768310416548e+01 1.2649990325040143e+01 1.5617789141239745e+01 -1 0 0
4447 1024 70 -8.4760000000000002e-01 1.4632427299398497e+01 1.7815939798082056e+01 1.4539398179246412e+01 0 0 0
8981 2536 71 4.2380000000000001e-01 1.6966850853703654e+01 2.5008752525510651e+01 6.9253238318024994e+00 0 1 1
1852 159 70 -8.4760000000000002e-01 1.0354575943749690e+01 1.8202707974844543e+01 9.5382057761752712e+00 1 1 0
3653 760 71 4.2380000000000001e-01 1.2124865376643349e+01 1.4130471006693581e+01 1.4989104997129701e+01 -1 0 -2
1827 151 71 4.2380000000000001e-01 2.9806694764570253e+01 1.7843501171856310e+01 1.3218659981130349e+01 0 1 1
1989 205 71 4.2380000000000001e-01 8.6308061436268275e+00 7.9767921448184023e+00 9.4815946160788638e+00 0 0 0
1990 205 70 -8.4760000000000002e-01 8.2875040398083808e+00 7.1169900521592755e+00 9.8559697259297590e+00 0 0 0
1714 123 20 3.2000000000000001e-02 7.0303498530452435e+00 1.8378631175667255e+01 1.5568825483441577e+01 2 1 1
1953 193 71 4.2380000000000001e-01 1.7725728784749329e+01 8.2811291092434107e+00 1.2916926400403671e+01 0 1 0
6400 1675 70 -8.4760000000000002e-01 1.8044165910326480e+01 1.0938523612664930e+01 1.4873441534630917e+01 0 -1 1
6199 1608 70 -8.4760000000000002e-01 1.7811027361559574e+01 1.4416505330343583e+01 7.3027772578030063e+00 0 -1 1
1503 108 20 3.2000000000000001e-02 2.8962422798615499e+01 2.0581448945139115e+01 7.0335612718673586e+00 0 0 1
4883 1170 71 4.2380000000000001e-01 1.4437378743135007e+01 9.3597674756459259e+00 1.5843183999324504e+01 -1 0 0
4070 899 71 4.2380000000000001e-01 9.5764030254513344e+00 1.7233958421407664e+01 1.4171290044299736e+01 2 0 -1
9553 2726 70 -8.4760000000000002e-01 2.0541265397723777e+01 7.1736921775927032e+00 9.9368372644529899e+00 -1 1 1
7475 2034 71 4.2380000000000001e-01 1.6114310525632085e+01 1.6988412770430536e+01 1.3347114005723583e+01 0 0 1
10209 2945 71 4.2380000000000001e-01 1.1797975808605996e+01 1.1217213873862384e+01 7.5461931662781039e+00 0 2 0
5327 1318 71 4.2380000000000001e-01 1.2689524514001928e+01 1.3301358755163630e+01 8.1403298835189766e+00 0 1 1
9260 2629 71 4.2380000000000001e-01 7.3055795652926641e+00 1.6025401131203338e+01 8.5171239064975968e+00 0 -1 2
3156 594 71 4.2380000000000001e-01 1.6120382420206454e+01 1.1894510307652753e+01 6.9856053705315908e+00 0 0 1
6194 1607 71 4.2380000000000001e-01 1.1644738864530082e+01 8.5699716698855735e+00 1.0327331708462841e+01 0 0 1
5114 1247 71 4.2380000000000001e-01 2.9414303844903213e+01 2.5311864767691716e+01 7.8480678251022544e+00 0 0 2
1394 100 20 3.1000000000000000e-02 2.9945840220964012e+01 7.4508482441047335e+00 8.2227244768674659e+00 0 1 0
7924 2183 70 -8.4760000000000002e-01 8.6978398059677975e+00 2.9858245577613687e+01 1.0719666622361659e+01 3 -1 0
6795 1807 71 4.2380000000000001e-01 1.8353158526785911e+01 1.4267589420779874e+01 1.4914294211954116e+01 0 -1 1
6386 1671 71 4.2380000000000001e-01 1.6694268442169339e+01 1.5323838543985968e+01 1.1263931432811587e+01 1 1 1
9262 2629 70 -8.4760000000000002e-01 7.3242369801246410e+00 1.6996934750886997e+01 8.7545396980959680e+00 0 -1 2
1162 83 21 4.1699999999999998e-01 2.1206343542475189e+01 1.9926687469100798e+01 7.0721029266386104e+00 0 1 1
5957 1528 71 4.2380000000000001e-01 2.9337192033769679e+01 1.3314524514947763e+01 1.2997984468002738e+01 0 1 1
6196 1607 70 -8.4760000000000002e-01 1.1519785438608027e+01 8.2033523845759646e+00 9.4051141751719687e+00 0 0 1
5329 1318 70 -8.4760000000000002e-01 1.2438090130221521e+01 1.2774982178166562e+01 8.9477008380535459e+00 0 1 1
3540 722 71 4.2380000000000001e-01 1.6524402154193645e+01 1.2268274959688672e+01 1.5201827068231159e+01 -1 0 0
1390 100 67 -6.3100000000000001e-01 2.9634280426103331e+01 7.9173737734622911e+00 1.0701897058009582e+01 0 1 0
4388 1005 71 4.2380000000000001e-01 1.5495540332953597e+01 9.2833921977672151e+00 7.0519530329328290e+00 1 0 -1
5306 1311 71 4.2380000000000001e-01 1.7036093711086316e+01 1.8062578427402698e+01 7.2295721699564295e+00 0 0 0
5325 1317 71 4.2380000000000001e-01 2.6660772977915222e+01 2.8606702889302024e+01 6.7255777744658651e+00 2 0 0
3264 630 71 4.2380000000000001e-01 1.8763005590445864e+01 1.2768276875762353e+01 1.1870757218161796e+01 0 0 1
1954 193 70 -8.4760000000000002e-01 1.8296187479383214e+01 8.9561791799873731e+00 1.2453759392045981e+01 0 1 0
3566 731 71 4.2380000000000001e-01 1.1142736808281743e+01 1.6251837818401562e+01 8.1044300727334679e+00 -1 1 2
304 22 20 3.2000000000000001e-02 2.4088054679529623e+01 2.0810230724097572e+01 1.5466924890743819e+01 0 1 -2
4436 1021 71 4.2380000000000001e-01 2.8901011200182250e+01 1.6574950329542865e+01 1.0609083623512138e+01 1 0 0
3041 556 71 4.2380000000000001e-01 1.1165175312885705e+01 6.7312532239934404e+00 1.2607859194795260e+01 0 -1 2
6197 1608 71 4.2380000000000001e-01 1.7646787332046507e+01 1.5368111531849701e+01 7.0449942052765149e+00 0 -1 1
6398 1675 71 4.2380000000000001e-01 1.9006290102656283e+01 1.0979089310061138e+01 1.5139203212588017e+01 0 -1 1
2919 515 71 4.2380000000000001e-01 1.2594705966383010e+01 7.1396402175125111e+00 8.4817700459923984e+00 0 1 2
5308 1311 70 -8.4760000000000002e-01 1.6944280454992331e+01 1.7177198707160002e+01 7.6776752334886531e+00 0 0 0
3650 759 71 4.2380000000000001e-01 1.9019746728844826e+01 1.0153319696746610e+01 7.3941509739606888e+00 0 1 3
2769 465 71 4.2380000000000001e-01 2.4614481038035908e+01 2.6076615142233791e+01 7.2612200693066580e+00 0 0 0
3043 556 70 -8.4760000000000002e-01 1.1284740960963187e+01 6.8159512405265037e+00 1.3593204746422497e+01 0 -1 2
7586 2071 71 4.2380000000000001e-01 2.8096471195725265e+01 7.0382833230387147e+00 7.2951044866764079e+00 0 0 0
9894 2840 71 4.2380000000000001e-01 8.9582296998717901e+00 2.8981017103392116e+01 7.5874425781616672e+00 1 1 2
9551 2726 71 4.2380000000000001e-01 2.0570204299969909e+01 6.9371718805355957e+00 1.0909654764480685e+01 -1 1 1
5264 1297 71 4.2380000000000001e-01 1.4031421100544470e+01 1.4473335111855048e+01 6.9203565238953262e+00 0 2 2
8982 2536 71 4.2380000000000001e-01 1.8548735742441423e+01 2.4660897595831631e+01 7.1438840834719963e+00 0 1 1
4884 1170 71 4.2380000000000001e-01 1.4583391377427056e+01 1.0847641848297195e+01 1.5181836525748245e+01 -1 0 0
3568 731 70 -8.4760000000000002e-01 1.0762229310871490e+01 1.5367374281575296e+01 7.8172333448202629e+00 -1 1 2
7971 2199 71 4.2380000000000001e-01 2.2594807277679159e+01 2.9613592609903968e+01 1.1476007925184270e+01 1 -1 2
3162 596 71 4.2380000000000001e-01 2.3781236631746900e+01 2.3581045180916234e+01 7.6042409838238507e+00 -1 0 1
6796 1807 70 -8.4760000000000002e-01 1.8518624190610730e+01 1.5111995558035764e+01 1.4409758605774993e+01 0 -1 1
1830 152 71 4.2380000000000001e-01 2.5352547821391237e+01 1.6364029576036607e+01 6.8914296355752285e+00 -1 0 0
4198 941 70 -8.4760000000000002e-01 2.0534747192196882e+01 1.6088769040657915e+01 1.5795534911253204e+01 0 1 0
1341 96 20 3.2000000000000001e-02 2.8643770732411834e+01 2.8820208216537281e+01 1.3406930511370572e+01 0 0 0
4389 1005 71 4.2380000000000001e-01 1.4117658528316085e+01 9.2473930495730610e+00 7.9186142815721565e+00 1 0 -1
3743 790 71 4.2380000000000001e-01 2.8207695147148169e+01 2.2394628856023623e+01 1.0808126166665932e+01 0 1 2
4816 1147 70 -8.4760000000000002e-01 1.6830834320372759e+01 6.7665438359687089e+00 1.3752529845314669e+01 1 0 -1
10036 2887 70 -8.4760000000000002e-01 1.0616215830528510e+01 2.9647136280581829e+01 8.8137152297269878e+00 0 0 1
78 6 20 3.1000000000000000e-02 1.5472935783299047e+01 6.7790889460417745e+00 8.5680850218677929e+00 0 1 0
3263 630 71 4.2380000000000001e-01 1.9207962344928585e+01 1.4022585465401054e+01 1.2815556615419220e+01 0 0 1
10309 2978 70 -8.4760000000000002e-01 1.9367158205673441e+01 9.4054701620056669e+00 8.9964455974320714e+00 0 0 -1
1160 83 58 4.1699999999999998e-01 2.4352961656454223e+01 1.7924735444165371e+01 8.1393178803816681e+00 0 1 1
3265 630 70 -8.4760000000000002e-01 1.9368235815498771e+01 1.3564602347594555e+01 1.1940897794144036e+01 0 0 1
10308 2978 71 4.2380000000000001e-01 1.9632414556370676e+01 8.6611596497615029e+00 9.6141435243296414e+00 0 0 -1
5466 1364 71 4.2380000000000001e-01 6.8348690750845735e+00 2.0092608250797113e+01 7.6647526692417234e+00 -1 1 0
5524 1383 70 -8.4760000000000002e-01 2.0606264646854434e+01 1.1431340024374919e+01 1.5366260770732568e+01 0 1 0
6794 1807 71 4.2380000000000001e-01 1.9256178189966569e+01 1.5624773350857225e+01 1.4851676218221211e+01 0 -1 1
6527 1718 71 4.2380000000000001e-01 2.5080024070735874e+01 7.9260030951810023e+00 1.0301799582766360e+01 0 0 -1
6256 1627 70 -8.4760000000000002e-01 2.7054106850813977e+01 1.3193911714701990e+01 1.4687913052558962e+01 0 1 0
2825 484 71 4.2380000000000001e-01 2.1356356305033948e+01 7.2880735383753681e+00 1.3429062617721975e+01 2 0 0
9282 2636 71 4.2380000000000001e-01 2.0678897237977701e+01 1.4456607439289829e+01 1.1580980812470983e+01 0 0 0
6112 1579 70 -8.4760000000000002e-01 2.6463373586866322e+01 8.5837699223611139e+00 1.2164710945183803e+01 1 2 -1
9281 2636 71 4.2380000000000001e-01 2.1759094597390728e+01 1.5590503413626427e+01 1.2032429816452577e+01 0 0 0
9283 2636 70 -8.4760000000000002e-01 2.1415479279600312e+01 1.5047488714358570e+01 1.1266687191780376e+01 0 0 0
6110 1579 71 4.2380000000000001e-01 2.5747407326431414e+01 8.7661845821236533e+00 1.1485597463254511e+01 1 2 -1
6111 1579 71 4.2380000000000001e-01 2.6715443283493688e+01 7.6158725124195348e+00 1.2136146518653394e+01 1 2 -1
8988 2538 71 4.2380000000000001e-01 1.8189542126130767e+01 1.9120107400433909e+01 9.5161231367006476e+00 2 0 0
10307 2978 71 4.2380000000000001e-01 1.9798316056178507e+01 1.0257878867587745e+01 9.2878891774222758e+00 0 0 -1
8543 2390 71 4.2380000000000001e-01 7.6181781385371723e+00 1.1260741713758701e+01 1.5772756755748482e+01 2 0 1
8905 2510 70 -8.4760000000000002e-01 2.1913614844716236e+01 1.5240454198972829e+01 7.8718658238975481e+00 1 1 0
8903 2510 71 4.2380000000000001e-01 2.1959744606169448e+01 1.6211709374944036e+01 8.1061308522289863e+00 1 1 0
3488 705 71 4.2380000000000001e-01 2.3116904767309453e+01 7.3230817410461935e+00 1.5209327846336643e+01 -2 1 1
3490 705 70 -8.4760000000000002e-01 2.2421525989762220e+01 7.9753584339176751e+00 1.4905870588972027e+01 -2 1 1
5993 1540 71 4.2380000000000001e-01 2.8994684452408769e+01 1.2781159202834059e+01 9.1109922754954571e+00 2 0 0
8900 2509 71 4.2380000000000001e-01 2.7983611241698434e+01 1.0880803919886986e+01 9.3386890229580999e+00 1 1 1
8902 2509 70 -8.4760000000000002e-01 2.8152515963597462e+01 9.9389189408655554e+00 9.6166552718628875e+00 1 1 1
3208 611 70 -8.4760000000000002e-01 2.0159494410499160e+01 1.2723847544582743e+01 8.3360451443403463e+00 0 0 0
3207 611 71 4.2380000000000001e-01 1.9414963870341335e+01 1.3307557094756884e+01 8.0244459669447501e+00 0 0 0
3256 627 70 -8.4760000000000002e-01 2.3830642958992673e+01 1.4891000243457841e+01 1.0175983168550712e+01 0 0 1
3255 627 71 4.2380000000000001e-01 2.2940192838847750e+01 1.4868752400320497e+01 1.0620665384259626e+01 0 0 1
1343 96 21 3.9800000000000002e-01 2.7092793591683328e+01 2.7421708331242165e+01 1.5531365206229829e+01 0 0 0