LAMMPS Description

     14  atoms
     13  bonds
     21  angles
     27  dihedrals
     1  impropers

     71  atom types
     254  bond types
     155  angle types
     47  dihedral types
     5  improper types

  -100.0 100.0 xlo xhi
  -100.0 100.0 ylo yhi
  -100.0 100.0 zlo zhi

Atoms # full

1 1 64 0.158000 1.4481852124 0.2275289946 -0.6542011402
2 1 12 0.166000 -0.0089452097 -0.230484757 -0.6274744853
3 1 64 0.158000 -0.9493040229 0.8203569572 -0.04129597
4 1 67 -0.631000 1.9462583422 0.4363382974 0.6636829849
5 1 20 0.032000 1.5434346342 1.1755330803 -1.194744335
6 1 20 0.032000 2.0473742204 -0.5278883718 -1.185402576
7 1 67 -0.611000 -0.0478953067 -1.4065528137 0.1883507305
8 1 20 0.031000 -0.332333838 -0.4706855915 -1.6531617873
9 1 67 -0.631000 -2.2119692243 0.1715733333 0.1499654384
10 1 20 0.032000 -1.0395239243 1.6743433613 -0.7275824244
11 1 20 0.032000 -0.5424395455 1.1772345361 0.9124806539
12 1 58 0.417000 -2.7122649508 0.6696183952 0.8148652913
13 1 21 0.398000 -0.9662364974 -1.4512774406 0.5161473518
14 1 21 0.417000 1.6443791693 -0.3419240746 1.1666840333

Bonds

1 60 4 14
2 18 1 4
3 3 1 5
4 3 1 6
5 27 1 2
6 39 2 8
7 18 2 7
8 27 2 3
9 60 7 13
10 3 3 10
11 3 3 11
12 18 3 9
13 60 9 12

Angles

1 12 1 4 14
2 15 4 1 5
3 15 4 1 6
4 15 2 1 4
5 7 5 1 6
6 51 2 1 5
7 51 2 1 6
8 50 1 2 8
9 13 1 2 7
10 15 1 2 3
11 51 7 2 8
12 50 3 2 8
13 13 3 2 7
14 12 2 7 13
15 51 2 3 10
16 51 2 3 11
17 15 2 3 9
18 7 10 3 11
19 15 9 3 10
20 15 9 3 11
21 12 3 9 12

Dihedrals

1 47 5 1 4 14
2 47 6 1 4 14
3 23 2 1 4 14
4 47 4 1 2 8
5 47 4 1 2 7
6 34 3 2 1 4
7 23 1 2 7 13
8 47 1 2 3 10
9 47 1 2 3 11
10 34 1 2 3 9
11 47 5 1 2 8
12 47 5 1 2 7
13 47 3 2 1 5
14 47 6 1 2 8
15 47 6 1 2 7
16 47 3 2 1 6
17 23 2 3 9 12
18 47 8 2 7 13
19 47 8 2 3 10
20 47 8 2 3 11
21 47 8 2 3 9
22 47 7 2 3 10
23 47 7 2 3 11
24 47 7 2 3 9
25 47 3 2 7 13
26 47 10 3 9 12
27 47 11 3 9 12

Impropers

1 2 2 1 3 7

