LAMMPS data file via write_data, version 15 Apr 2020, timestep = 10000

10411 atoms
71 atom types
7399 bonds
254 bond types
5512 angles
155 angle types
3375 dihedrals
47 dihedral types
125 impropers
5 improper types

6.6366670850452891e+00 5.3363332914927682e+01 xlo xhi
6.6366670850452891e+00 5.3363332914927682e+01 ylo yhi
6.6366670850452891e+00 5.3363332914927682e+01 zlo zhi

Masses

1 15.9994
2 15.9994
3 15.9994
4 15.9994
5 15.9994
6 14.0067
7 14.0067
8 14.0067
9 14.0067
10 14.0067
11 14.0067
12 12.011
13 12.011
14 13.019
15 14.027
16 15.035
17 16.043
18 14.027
19 12.011
20 1.008
21 1.008
22 1
23 32.06
24 63.546
25 63.546
26 55.847
27 65.37
28 24.305
29 40.08
30 39.948
31 18.9984
32 35.453
33 79.904
34 12.011
35 15.9994
36 22.9898
37 35.453
38 12.011
39 35.453
40 1.008
41 32.06
42 12.011
43 15.9994
44 12.011
45 35.453
46 18.9984
47 12.011
48 13.019
49 15.9994
50 12.011
51 15.9994
52 14.0067
53 15.035
54 126.904
55 35.453
56 10.811
57 78.96
58 1.008
59 35.453
60 79.904
61 15.9994
62 14.0067
63 12.011
64 12.011
65 14.0067
66 14.0067
67 15.9994
68 28.08
69 30.9738
70 15.9994
71 1.008

Pair Coeffs # lj/cut/coul/long

1 0.305714 2.76007
2 0.412295 2.62585
3 0.203061 2.95484
4 0.252656 2.84916
5 0.155394 3.16565
6 0.152915 3.13647
7 0.0700622 3.5722
8 0.152915 3.13647
9 0.104651 3.34113
10 0.152915 3.13647
11 0.152915 3.13647
12 0.0663015 3.58118
13 0.00167194 6.63949
14 0.0226791 5.01918
15 0.098122 4.07038
16 0.207254 3.74792
17 0.302012 3.70995
18 0.11455 3.95474
19 0.120138 3.74119
20 0.0282937 2.37341
21 0 0
22 0 0
23 0.455513 3.30769
24 2.039 1.5184
25 2.039 1.5184
26 0 0
27 1.107 1.68112
28 0.0747249 1.93323
29 0.121156 2.81311
30 0.238148 3.40984
31 0.10897 2.94006
32 0.300087 3.46982
33 0.69792 3.6508
34 0.243126 3.60124
35 0.131455 3.17694
36 0.00509651 3.12117
37 0.162149 4.09571
38 0.101741 3.40006
39 0.299511 3.44
40 0.0197496 2.20219
41 0.310038 3.55995
42 0.207254 3.74792
43 0.409923 2.63004
44 0.0544087 3.7739
45 0.270582 3.44757
46 0.0828967 3.07717
47 0.0970049 3.3611
48 0.117014 3.91992
49 0.203061 2.95484
50 0.105027 3.74991
51 0.210013 2.95998
52 0.169966 3.25006
53 0.207254 3.74792
54 0.836845 3.84961
55 0.329921 3.26983
56 0.0663015 3.58118
57 0.455513 3.30769
58 0 0
59 0.329921 3.26983
60 0.580843 3.89995
61 0.119432 3.40025
62 0.1399 3.9019
63 0.0734574 3.52053
64 0.245018 2.81144
65 0.142655 4.06776
66 0.219779 3.64529
67 0.119497 3.1
68 0.584786 3.38557
69 0.584786 3.38557
70 0.1553 3.166
71 0 0

Bond Coeffs # harmonic

1 375.239 1
2 446.941 1
3 349.274 1.09
4 1109.29 1.12
5 600.242 1.23
6 500.418 1.25
7 499.732 1.32
8 375.003 1.33
9 448.144 1.33
10 498.877 1.33
11 450.617 1.34
12 502.116 1.34
13 450.906 1.36
14 500.679 1.38
15 399.904 1.39
16 498.726 1.39
17 400.057 1.4
18 399.792 1.43
19 450.132 1.43
20 300.222 1.435
21 449.843 1.47
22 299.976 1.48
23 399.968 1.48
24 450.226 1.48
25 450.108 1.5
26 299.844 1.52
27 400.034 1.53
28 299.851 1.61
29 299.727 1.63
30 205.976 1.78
31 449.816 1.78
32 449.828 1.83
33 300.045 1.87
34 59.9679 1.98
35 60.0382 2
36 500.307 2.04
37 63.0357 2.21
38 554.493 1
39 349.928 1.1
40 599.794 1.758
41 449.829 1.53
42 444.341 1.93799
43 599.679 1.76
44 501.026 1.265
45 448.656 1.35
46 555.129 1.63299
47 350.249 2.33839
48 600.161 2.90283
49 445.884 2.79388
50 443.815 2.91189
51 409.328 2.077
52 600.173 2.87407
53 88.4321 1.1
54 56.1663 1.84
55 513.862 1.01
56 310.707 1.41
57 442.161 1.02
58 239.006 1.46
59 513.862 1.29
60 442.161 0.972
61 812.62 1.22
62 466.061 1.22
63 239.006 1.54
64 179.254 1.56
65 227.055 1.54
66 106.358 1.76
67 131.453 1.69
68 203.155 1.75
69 203.155 1.51
70 143.403 1.57
71 179.254 0.971
72 191.205 1.5
73 262.906 1.45
74 549.713 1.52
75 83.652 1.03
76 191.205 1.74
77 191.205 1.72
78 227.055 1.64
79 203.155 1.67
80 191.205 1.66
81 215.105 1.65
82 513.862 1.31
83 155.354 1.01
84 35.8509 1.89
85 101.577 1.93
86 155.354 1.36
87 167.304 1.79
88 114.723 1.35
89 155.354 1.39
90 203.155 1.38
91 227.055 0.983
92 155.354 1.3
93 418.26 1.08
94 155.354 1.9
95 1314.53 1.16
96 143.403 1.8
97 155.354 1.42
98 478.011 0.984
99 119.503 1.08
100 119.503 1.91
101 418.26 1.03
102 525.813 1.28
103 131.453 1.22
104 143.403 1.11
105 1195.03 1.21
106 466.061 1.07
107 956.023 1.21
108 693.117 1.21
109 87.2371 1.85
110 394.359 1.11
111 109.943 2.09
112 131.453 1.82
113 99.1874 1.96
114 56.1663 1.86
115 167.304 1.21
116 167.304 1.28
117 143.403 1.71
118 131.453 1.6
119 454.111 1.21
120 41.826 1.61
121 131.453 1.94
122 155.354 1.59
123 143.403 2.1
124 119.503 2.12
125 57.3614 2.13
126 203.155 1.26
127 1195.03 1.14
128 191.205 1.23
129 788.719 1.3
130 239.006 1.31
131 59.7514 2.04
132 82.457 1.34
133 621.415 0.938
134 310.707 1.16
135 34.6558 2.07
136 60.9465 1.16
137 93.2122 2.16
138 43.021 2.23
139 23.9006 2.05
140 896.272 1.19
141 728.967 1.47
142 394.359 1.57
143 1195.03 1.18
144 54.9713 1.87
145 1063.58 1.17
146 215.105 1.13
147 59.7514 2.02
148 179.254 1.07
149 250.956 1.14
150 155.354 1.06
151 537.763 1.46
152 812.62 1.17
153 92.0172 2.15
154 239.006 1.04
155 60.9465 1.4
156 1314.53 1.11
157 466.061 1.56
158 752.868 1.49
159 501.912 1.54
160 35.8509 2.17
161 35.8509 2.27
162 669.216 1.45
163 764.818 1.25
164 848.47 1.27
165 561.663 1.16
166 1434.03 1.14
167 501.912 1.17
168 537.763 1.19
169 920.172 1.14
170 227.055 1.24
171 1434.03 1.13
172 89.6272 2.91
173 57.3614 2.24
174 418.26 0.743
175 239.006 1.2
176 111.138 2.33
177 96.7973 2.42
178 83.652 1.32
179 1159.18 1.2
180 1314.53 1.2
181 430.21 1.58
182 53.7763 1.47
183 1.55354 2.77
184 5.13862 2.25
185 100.382 2.18
186 50.1912 1.52
187 93.2122 2.19
188 27.4857 1.48
189 1912.05 1.07
190 8.60421 2.8
191 87.2371 2.52
192 0.669216 2.79
193 812.62 1.16
194 1.79254 2.68
195 406.31 1.59
196 119.503 1.18
197 34.6558 2.54
198 1792.54 1.1
199 824.57 1.29
200 33.4608 2.44
201 107.553 2.41
202 112.333 2.36
203 20.3155 1.43
204 2.27055 2.57
205 19.1205 2.47
206 0.764818 2.71
207 1553.54 1.12
208 3.70459 2.75
209 501.912 1.14
210 0.717017 2.86
211 10.5163 2.64
212 1912.05 0.985
213 1.91205 2.61
214 7.40918 2.62
215 59.7514 2.46
216 3.58509 2.66
217 1.31453 2.72
218 58.5564 1.63
219 573.614 1.12
220 37.0459 2.32
221 16.7304 1.44
222 1553.54 1.16
223 7.17017 2.69
224 10.0382 2.49
225 3.22658 2.92
226 0.82457 2.29
227 9.79924 2.4
228 1.03967 2.37
229 1.55354 2.94
230 5.85564 2.95
231 1.67304 2.96
232 0.0131453 2.56
233 5.25813 2.59
234 15.5354 2.38
235 836.52 1.12
236 1.91205 2.5
237 2.39006 2.3
238 585.564 1.04
239 3.34608 2.99
240 0.967973 2.34
241 1.07553 2.98
242 2.27055 2.74
243 1063.58 1.16
244 812.62 1.5
245 1.31453 2.84
246 0.322658 2.82
247 908.222 1.23
248 466.061 1.05
249 3.34608 2.88
250 1434.03 1.18
251 1673.04 1.15
252 6.33365 2.9
253 0 0
254 100 1

Angle Coeffs # harmonic

1 45.3116 90
2 50.0917 90
3 47.7712 96
4 54.9551 100
5 47.5559 103
6 55.0345 104
7 50.1709 108
8 30.1731 109.5
9 33.8897 109.5
10 40.2609 109.5
11 45.0394 109.5
12 47.694 109.5
13 55.1272 109.5
14 47.635 109.6
15 55.1139 111
16 55.0997 113
17 4.824 115
18 45.0699 115
19 59.7937 115
20 44.8085 116
21 59.7719 116
22 60.1639 117
23 34.88 120
24 39.8095 120
25 45.1871 120
26 47.4278 120
27 50.1166 120
28 59.9756 120
29 69.8346 120
30 60.0726 121
31 60.091 122
32 34.8146 123
33 59.8929 124
34 30.0075 125
35 60.0779 125
36 44.9139 126
37 49.998 126
38 60.166 126
39 50.1189 132
40 47.5187 155
41 28.4971 180
42 45.9951 109.5
43 52.4767 107.57
44 65.472 111.3
45 55.0189 97.4
46 55.0247 106.75
47 47.5019 108.53
48 65.5335 109.5
49 54.9566 107.6
50 47.4817 109.5
51 54.9931 110.3
52 55.0234 111.4
53 60.044 117.2
54 60.0023 121.4
55 48.24 180
56 180.46 109
57 192.229 106
58 145.153 126
59 145.153 96.2
60 156.922 114
61 203.998 119
62 239.306 130
63 298.152 107
64 156.922 134
65 239.306 101
66 286.382 113
67 368.766 134
68 356.997 119
69 333.459 126
70 251.075 89.6
71 380.536 114
72 286.382 135
73 145.153 88.3
74 133.384 60
75 380.536 179
76 251.075 180
77 470.766 178
78 47.0766 59.9
79 47.0766 60.3
80 251.075 124
81 706.149 118
82 117.691 144
83 627.688 123
84 470.766 118
85 333.459 94.8
86 90.2301 175
87 156.922 82.8
88 117.691 77.6
89 239.306 145
90 251.075 50.8
91 380.536 104
92 262.844 84.4
93 215.768 63.3
94 215.768 61
95 298.152 173
96 192.229 173
97 82.384 50.9
98 431.535 127
99 62.7688 67.8
100 156.922 180
101 588.457 118
102 30.1731 110
103 227.537 94.8
104 431.535 173
105 34.5228 78.5
106 70.6149 138
107 70.6149 168
108 156.922 167
109 18.046 149
110 333.459 144
111 356.997 148
112 321.69 144
113 356.997 148
114 321.69 147
115 333.459 144
116 5099.96 60.8
117 1451.53 68
118 298.152 161
119 156.922 155
120 309.921 154
121 215.768 75.3
122 309.921 64.7
123 549.227 173
124 3334.59 45.8
125 863.071 123
126 549.227 123
127 470.766 166
128 380.536 166
129 203.998 139
130 66.6918 161
131 7.45379 44.9
132 25.1075 84.8
133 192.229 161
134 333.459 70.4
135 627.688 173
136 1.92229 51.6
137 21.5768 73.3
138 7.45379 174
139 470.766 132
140 145.153 69.9
141 15.6922 144
142 1922.29 97.9
143 392.305 155
144 588.457 104
145 117.691 149
146 509.996 157
147 286.382 166
148 333.459 89.8
149 392.305 79.1
150 6669.18 45.2
151 470.766 101
152 745.379 125
153 168.691 49.6
154 509.996 112
155 100 109.47

Dihedral Coeffs # harmonic

1 0.638145 -1 1
2 0.81501 -1 1
3 1.18786 -1 1
4 1.40057 -1 1
5 2.2347 -1 1
6 2.2586 -1 1
7 0.666826 1 1
8 1.27868 1 1
9 0.365679 -1 2
10 1.40057 -1 2
11 1.69933 -1 2
12 3.9914 -1 2
13 5.73614 -1 2
14 8.00669 -1 2
15 9.99044 -1 2
16 0 1 2
17 0.0999044 1 2
18 0.499522 1 2
19 0.750478 1 2
20 1.21654 1 2
21 3.9914 1 2
22 0.250956 1 3
23 0.301147 1 3
24 0.310707 1 3
25 0.604685 1 3
26 0.700287 1 3
27 0.762428 1 3
28 0.872371 1 3
29 0.901052 1 3
30 0.932122 1 3
31 0.999044 1 3
32 1.12094 1 3
33 1.30019 1 3
34 1.41491 1 3
35 1.83795 1 3
36 2.06023 1 3
37 2.27055 1 3
38 0 1 4
39 0.239006 -1 6
40 0.239006 1 6
41 0.901052 1 6
42 0.83652 -1 2
43 0.669216 1 3
44 0.167304 -1 6
45 0.0956023 1 6
46 0.239006 -1 3
47 0 1 1

Improper Coeffs # harmonic

1 20.0075 0
2 40.0151 35.2644
3 80.0302 0
4 20.0075 180
5 40.0151 -35.2644

Atoms # full

4351 992 70 -8.4760000000000002e-01 1.4659034869511165e+01 7.6822780741406032e+00 1.0831018113680827e+01 4 -4 -7
4350 992 71 4.2380000000000001e-01 1.4790906792151802e+01 8.5342016422531373e+00 1.0324214337736358e+01 4 -4 -7
7303 1976 70 -8.4760000000000002e-01 1.4162419269308195e+01 1.2218330884886313e+01 1.1126342435275051e+01 6 -6 -4
7302 1976 71 4.2380000000000001e-01 1.4143622675519529e+01 1.1604844857891539e+01 1.1915833165331513e+01 6 -6 -4
7301 1976 71 4.2380000000000001e-01 1.5070251539819695e+01 1.2629818227556964e+01 1.1045515676749563e+01 6 -6 -4
189 14 67 -6.1099999999999999e-01 8.9810468897495959e+00 1.1062953995692293e+01 1.6340266177951296e+01 8 -4 -7
593 43 20 3.2000000000000001e-02 1.2623702840441297e+01 1.6568114152995257e+01 9.9988603112211045e+00 7 -5 -5
594 43 20 3.2000000000000001e-02 1.2783321786583645e+01 1.6331732386407872e+01 8.3306527556048167e+00 7 -5 -5
7657 2094 70 -8.4760000000000002e-01 1.3154779339315835e+01 8.3621035805445612e+00 1.5415841321410349e+01 7 -8 -6
2153 260 71 4.2380000000000001e-01 1.2496180163423455e+01 1.2758141703563096e+01 1.8266035188774044e+01 6 -5 -6
4715 1114 71 4.2380000000000001e-01 9.5589083188799187e+00 1.2998941793454522e+01 1.1900742277684472e+01 5 -6 -6
2154 260 71 4.2380000000000001e-01 1.3660170757413031e+01 1.3050561202666497e+01 1.7158659359104835e+01 6 -5 -6
2155 260 70 -8.4760000000000002e-01 1.3388803564707665e+01 1.3181880862878542e+01 1.8112142711270529e+01 6 -5 -6
7656 2094 71 4.2380000000000001e-01 1.3703795173064503e+01 9.0987855551293837e+00 1.5810677076755043e+01 7 -8 -6
595 43 67 -6.1099999999999999e-01 1.4731992234185478e+01 1.5243200859293106e+01 9.6135921305378105e+00 7 -5 -5
9901 2842 70 -8.4760000000000002e-01 1.2215303279015082e+01 1.2121152292049029e+01 1.3794885232183363e+01 7 -2 -4
9899 2842 71 4.2380000000000001e-01 1.2240558816790791e+01 1.1201261277713813e+01 1.3403506574903860e+01 7 -2 -4
9900 2842 71 4.2380000000000001e-01 1.1782177996573502e+01 1.2747408459621330e+01 1.3146641261462037e+01 7 -2 -4
589 43 64 1.5800000000000000e-01 1.3124529372665112e+01 1.6882546484372824e+01 9.1101744164427370e+00 7 -5 -5
4717 1114 70 -8.4760000000000002e-01 1.0060627266591387e+01 1.2135912378791691e+01 1.1959674389538410e+01 5 -6 -6
4716 1114 71 4.2380000000000001e-01 1.0110254862498198e+01 1.1716644043547873e+01 1.1053161321707867e+01 5 -6 -6
9939 2855 71 4.2380000000000001e-01 1.0615769095245895e+01 1.3541162674684481e+01 9.2601013370679475e+00 9 -5 -9
2455 360 70 -8.4760000000000002e-01 1.1230764233397590e+01 1.6396037969006741e+01 1.2565442264365732e+01 5 -3 -5
4311 979 71 4.2380000000000001e-01 9.8802694128504918e+00 9.3424203973538447e+00 1.3636732808666450e+01 5 -2 -5
4310 979 71 4.2380000000000001e-01 9.8096537205296119e+00 1.0948720922533544e+01 1.3351292674708155e+01 5 -2 -5
4312 979 70 -8.4760000000000002e-01 9.7091279287809193e+00 1.0237956199489144e+01 1.4047513341482837e+01 5 -2 -5
6298 1641 70 -8.4760000000000002e-01 9.4275105560554877e+00 8.3453942816006546e+00 9.3620265261091085e+00 6 -7 -5
2454 360 71 4.2380000000000001e-01 1.1263580469760772e+01 1.6825070523927323e+01 1.1662741777086769e+01 5 -3 -5
3722 783 71 4.2380000000000001e-01 1.0993184034258437e+01 8.4478394524830591e+00 1.2099236415067837e+01 5 -6 -5
3724 783 70 -8.4760000000000002e-01 1.0053710425377385e+01 8.1340934257374293e+00 1.1961516336378628e+01 5 -6 -5
3723 783 71 4.2380000000000001e-01 9.8817527623909314e+00 8.0159139022486752e+00 1.0983519317766365e+01 5 -6 -5
6555 1727 71 4.2380000000000001e-01 1.1876458154795603e+01 1.4283491087841497e+01 1.0528651852335107e+01 8 -3 -6
6556 1727 70 -8.4760000000000002e-01 1.2384584542744705e+01 1.4274285802901007e+01 1.1389893315605015e+01 8 -3 -6
6554 1727 71 4.2380000000000001e-01 1.3120473620614986e+01 1.3599359186228302e+01 1.1335530321596975e+01 8 -3 -6
9853 2826 70 -8.4760000000000002e-01 7.4086900111854668e+00 9.0493516134976861e+00 1.1831694256823605e+01 7 -2 -6
195 14 21 3.9800000000000002e-01 9.2038933431535739e+00 1.0793439697775389e+01 1.5400810845214082e+01 8 -4 -7
8379 2335 71 4.2380000000000001e-01 9.3504838300682600e+00 1.1435625549130279e+01 8.4219301633432089e+00 8 -4 -6
9940 2855 70 -8.4760000000000002e-01 1.1213507142214793e+01 1.4324698130615221e+01 9.0904090701662739e+00 9 -5 -9
9938 2855 71 4.2380000000000001e-01 1.0708998738790530e+01 1.5025857060092365e+01 8.5865624000141025e+00 9 -5 -9
9851 2826 71 4.2380000000000001e-01 8.3772136045710610e+00 8.8278249006182854e+00 1.1945285401688423e+01 7 -2 -6
590 43 12 1.6600000000000001e-01 1.4661960127145470e+01 1.6660623106662754e+01 9.3014116603411008e+00 7 -5 -5
599 43 20 3.2000000000000001e-02 1.5358017555181899e+01 1.6439493155229776e+01 7.1950348228230494e+00 7 -5 -5
2453 360 71 4.2380000000000001e-01 1.1563064756434057e+01 1.5455158688869775e+01 1.2499589769358101e+01 5 -3 -5
10306 2977 70 -8.4760000000000002e-01 1.2411847840941125e+01 9.0204168873771948e+00 1.2770998288744922e+01 5 -7 -5
6133 1586 70 -8.4760000000000002e-01 1.4148741098438080e+01 1.2770713808072561e+01 1.5434397045131989e+01 7 -4 -7
6132 1586 71 4.2380000000000001e-01 1.3536616433803967e+01 1.2421289521727365e+01 1.4725016940513980e+01 7 -4 -7
10305 2977 71 4.2380000000000001e-01 1.2711691413047793e+01 8.8241492131894592e+00 1.3704586453221292e+01 5 -7 -5
6296 1641 71 4.2380000000000001e-01 8.7205576375811873e+00 7.6400632740638530e+00 9.3096834430110533e+00 6 -7 -5
596 43 20 3.1000000000000000e-02 1.4947542565156809e+01 1.7259715826049906e+01 1.0118047985325820e+01 7 -5 -5
7328 1985 71 4.2380000000000001e-01 1.0740116005587113e+01 1.4606628737178953e+01 1.5082481060892249e+01 4 -6 -5
7667 2098 71 4.2380000000000001e-01 1.4456035025629838e+01 1.0599169209509808e+01 1.0041131862358375e+01 6 -5 -7
8378 2335 71 4.2380000000000001e-01 8.7160656004289248e+00 1.2100290698032897e+01 9.7718922440476454e+00 8 -4 -6
8380 2335 70 -8.4760000000000002e-01 9.5451127666283249e+00 1.2004565212986552e+01 9.2209553593685936e+00 8 -4 -6
2655 427 71 4.2380000000000001e-01 8.7041654748713420e+00 1.4472272951695478e+01 1.3017986767588129e+01 6 -4 -4
1829 152 71 4.2380000000000001e-01 1.3554328551977544e+01 1.3068124357696831e+01 7.0259751175745100e+00 3 -3 -6
2656 427 70 -8.4760000000000002e-01 8.6334016106682796e+00 1.4730016095088272e+01 1.2054360654966413e+01 6 -4 -4
1830 152 71 4.2380000000000001e-01 1.2280709022745690e+01 1.3278673976106880e+01 8.0260881226644027e+00 3 -3 -6
6297 1641 71 4.2380000000000001e-01 9.3489100047254166e+00 8.9552676595734493e+00 8.5734261456602923e+00 6 -7 -5
5087 1238 71 4.2380000000000001e-01 1.3291948698417048e+01 1.5054214959610592e+01 1.8827318148686409e+01 7 -6 -4
1831 152 70 -8.4760000000000002e-01 1.2571785840254840e+01 1.2920329830085038e+01 7.1390268242870487e+00 3 -3 -6
6119 1582 71 4.2380000000000001e-01 8.4414711742316051e+00 1.5507283413901037e+01 1.5849889089940776e+01 6 -5 -8
4261 962 70 -8.4760000000000002e-01 9.5863415045574811e+00 1.6394445844078742e+01 7.9149330843696140e+00 4 -6 -8
4260 962 71 4.2380000000000001e-01 1.0006998639322493e+01 1.7253444020436440e+01 7.6230706028877613e+00 4 -6 -8
1979 202 71 4.2380000000000001e-01 1.4516892202281189e+01 1.1227422977990436e+01 1.6310477152362836e+01 7 -6 -7
1981 202 70 -8.4760000000000002e-01 1.4425307452633746e+01 1.0415409000274462e+01 1.6886896743909745e+01 7 -6 -7
6131 1586 71 4.2380000000000001e-01 1.4760663126752577e+01 1.3455636481690465e+01 1.5038864008664344e+01 7 -4 -7
601 43 21 3.9800000000000002e-01 1.4248221595205401e+01 1.4587910989501614e+01 8.9779841206632689e+00 7 -5 -5
7655 2094 71 4.2380000000000001e-01 1.3235590058184226e+01 7.5441438177374156e+00 1.5985424905054707e+01 7 -8 -6
10304 2977 71 4.2380000000000001e-01 1.3152509768092663e+01 8.8119610976490570e+00 1.2132265088190241e+01 5 -7 -5
6840 1822 71 4.2380000000000001e-01 4.1062764541594781e+01 8.0628451792984333e+00 7.7446615917936095e+00 5 -3 -5
7330 1985 70 -8.4760000000000002e-01 1.0036335404786060e+01 1.5240611356026662e+01 1.4761898723479254e+01 4 -6 -5
7329 1985 71 4.2380000000000001e-01 1.0428729449816135e+01 1.5856504332499950e+01 1.4078731259379719e+01 4 -6 -5
4259 962 71 4.2380000000000001e-01 8.7154807170686333e+00 1.6271203580158158e+01 7.4390898226566851e+00 4 -6 -8
193 14 20 3.2000000000000001e-02 1.1721088207525465e+01 1.1202696563563805e+01 1.6478025574613667e+01 8 -4 -7
7825 2150 70 -8.4760000000000002e-01 9.3651963496339725e+00 9.8021315117650420e+00 7.1033314657531923e+00 4 -4 -5
508 37 67 -6.3100000000000001e-01 1.0362693572370961e+01 2.8375140251196932e+01 6.9823378495807082e+00 7 -4 -6
4885 1170 70 -8.4760000000000002e-01 1.5103773928491014e+01 1.3582443414226113e+01 7.0282989292658140e+00 4 -5 -4
5088 1238 71 4.2380000000000001e-01 1.1966062585959278e+01 1.5987779205085092e+01 1.9020057293020390e+01 7 -6 -4
5089 1238 70 -8.4760000000000002e-01 1.2947916148957303e+01 1.5917645367770586e+01 1.9196294866920343e+01 7 -6 -4
2571 399 71 4.2380000000000001e-01 1.0721684808133919e+01 7.1896582540639375e+00 8.6911300631616477e+00 5 -6 -7
6120 1582 71 4.2380000000000001e-01 6.8601759310300157e+00 1.5905906537894833e+01 1.5935149977363897e+01 6 -5 -8
6121 1582 70 -8.4760000000000002e-01 7.7916476270731785e+00 1.6215092343314303e+01 1.6126928683504833e+01 6 -5 -8
2654 427 71 4.2380000000000001e-01 8.7936085129335968e+00 1.5712537588542094e+01 1.1959493763657022e+01 6 -4 -4
5830 1485 70 -8.4760000000000002e-01 2.1295191706962608e+01 2.9759073247829104e+01 2.8961127505556821e+01 9 -5 -3
2721 449 71 4.2380000000000001e-01 2.5121803920274214e+01 6.7078670699518392e+00 1.4670410266436347e+01 4 -4 -5
591 43 64 1.5800000000000000e-01 1.5606531121140055e+01 1.7078169354187260e+01 8.0652902870404919e+00 7 -5 -5
7669 2098 70 -8.4760000000000002e-01 1.5019472141409207e+01 9.9009362567828099e+00 9.5995169577786488e+00 6 -5 -7
7668 2098 71 4.2380000000000001e-01 1.5493660650574762e+01 1.0301945503424706e+01 8.8157114768338616e+00 6 -5 -7
4736 1121 71 4.2380000000000001e-01 3.1493484075502678e+01 2.6470212476822439e+01 7.1879103322578199e+00 5 -6 -5
2615 414 71 4.2380000000000001e-01 7.6232644374380270e+00 1.3683738220271758e+01 1.1047378854359920e+01 4 -5 -5
9564 2730 71 4.2380000000000001e-01 6.9183155745296911e+00 1.0299625887823304e+01 1.5884656352319553e+01 7 -6 -8
2899 508 70 -8.4760000000000002e-01 1.5333070952755698e+01 8.0415222735263878e+00 2.8440822237468524e+01 3 -4 -3
6730 1785 70 -8.4760000000000002e-01 7.7023500129290072e+00 1.6979766898089522e+01 1.8633230195114105e+01 7 -6 -4
6729 1785 71 4.2380000000000001e-01 7.9141738800107264e+00 1.6910214855387395e+01 1.7658393149624541e+01 7 -6 -4
7144 1923 70 -8.4760000000000002e-01 9.3230668675484534e+00 1.7319372497730996e+01 1.0553866346701339e+01 5 -3 -4
7143 1923 71 4.2380000000000001e-01 9.3146594567171306e+00 1.6891335154200192e+01 9.6501362109067177e+00 5 -3 -4
2407 344 70 -8.4760000000000002e-01 2.8736781713510240e+01 9.2070212202916863e+00 2.7168908490015685e+01 4 -3 -6
1980 202 71 4.2380000000000001e-01 1.4765734557336895e+01 1.0618279489494695e+01 1.7805029084387257e+01 7 -6 -7
190 14 20 3.1000000000000000e-02 1.0115747387971751e+01 9.5253879428848371e+00 1.6488210142584911e+01 8 -4 -7
5588 1405 71 4.2380000000000001e-01 3.1900529895477508e+01 1.6005415326231720e+01 6.6691744550061847e+00 6 -5 -8
10268 2965 71 4.2380000000000001e-01 4.7451215082727273e+01 7.0017371386897667e+00 2.9218484925385976e+01 6 -5 -7
7744 2123 70 -8.4760000000000002e-01 2.8587581083935035e+01 2.7277647662468478e+01 7.7318584195633466e+00 7 -7 -4
8624 2417 71 4.2380000000000001e-01 1.7424502978715683e+01 1.3307212927429010e+01 1.1532988314499502e+01 7 -6 -5
8626 2417 70 -8.4760000000000002e-01 1.6891107405504442e+01 1.2614955020621558e+01 1.1046899662083003e+01 7 -6 -5
10028 2885 71 4.2380000000000001e-01 1.5283003571738794e+01 1.6103444003675627e+01 1.4887471021759266e+01 8 -4 -5
4834 1153 70 -8.4760000000000002e-01 5.2696351942065071e+01 1.7836430121463621e+01 8.9043157536687030e+00 7 -6 -6
602 43 21 4.1699999999999998e-01 1.2083037982144916e+01 1.8449604112717822e+01 9.3785410005386325e+00 7 -5 -5
592 43 67 -6.3100000000000001e-01 1.2899126219302117e+01 1.8295977789669188e+01 8.7960698686082583e+00 7 -5 -5
598 43 20 3.2000000000000001e-02 1.5358810179104371e+01 1.8192370309705332e+01 7.7587844088550204e+00 7 -5 -5
10030 2885 70 -8.4760000000000002e-01 1.5200913162566886e+01 1.7002970170793471e+01 1.5316572288289596e+01 8 -4 -5
322 23 21 4.1699999999999998e-01 5.2302988769946282e+01 2.0057411754405521e+01 2.9739602411138506e+01 7 -4 -6
8286 2304 71 4.2380000000000001e-01 3.3430792954604811e+01 8.8578611874545619e+00 7.7989831780149537e+00 6 -6 -5
4358 995 71 4.2380000000000001e-01 2.1479093077738323e+01 2.9532546285397896e+01 2.0232403709888054e+01 6 -5 -4
6432 1686 71 4.2380000000000001e-01 7.4372027658586006e+00 8.0218383322661015e+00 1.6758694328977707e+01 5 -5 -5
10295 2974 71 4.2380000000000001e-01 1.5706484075493588e+01 2.7739297286273356e+01 6.9180932985870358e+00 6 -7 -3
6107 1578 71 4.2380000000000001e-01 1.9375877313809582e+01 2.6731353926890073e+01 2.9488336755104811e+01 9 -4 -5
6433 1686 70 -8.4760000000000002e-01 7.0546399340333696e+00 7.6225917631709947e+00 1.5925470305281495e+01 5 -5 -5
4497 1041 71 4.2380000000000001e-01 4.8507193535517025e+01 1.9850875280245219e+01 2.8567496502710917e+01 6 -4 -6
6431 1686 71 4.2380000000000001e-01 6.8610244458544347e+00 8.3491495610466728e+00 1.5266196414900566e+01 5 -5 -5
7392 2006 71 4.2380000000000001e-01 2.6508537527102188e+01 7.2995522998740130e+00 1.9797567921941450e+01 4 -2 -6
4349 992 71 4.2380000000000001e-01 1.5098839622154721e+01 7.7554446422892820e+00 1.1726133986761706e+01 4 -4 -7
4884 1170 71 4.2380000000000001e-01 1.5830208394470915e+01 1.3623407040872827e+01 7.7143229865012302e+00 4 -5 -4
8817 2481 71 4.2380000000000001e-01 1.7149074015327756e+01 1.0435344435289840e+01 7.8995974693201738e+00 7 -4 -5
8818 2481 70 -8.4760000000000002e-01 1.6494726909393606e+01 1.0468910942043783e+01 7.1441389682640111e+00 7 -4 -5
7823 2150 71 4.2380000000000001e-01 1.0189863811082315e+01 1.0190092181045607e+01 6.6917197921936937e+00 4 -4 -5
4271 966 71 4.2380000000000001e-01 1.6106730642349632e+01 1.5107010490963738e+01 1.3601504924716613e+01 5 -4 -7
4273 966 70 -8.4760000000000002e-01 1.6023977197942159e+01 1.4628948498919108e+01 1.4475931940104765e+01 5 -4 -7
4272 966 71 4.2380000000000001e-01 1.6930034021998850e+01 1.4339467387662904e+01 1.4784599558538671e+01 5 -4 -7
2329 318 70 -8.4760000000000002e-01 1.6060681241150554e+01 1.0947226213589719e+01 1.9215360603524793e+01 4 -3 -7
2327 318 71 4.2380000000000001e-01 1.5927063025085371e+01 1.0332112466487180e+01 1.9992403272168993e+01 4 -3 -7
10223 2950 71 4.2380000000000001e-01 1.6073158406240957e+01 8.2399448549016832e+00 1.4236846038597369e+01 5 -5 -6
10225 2950 70 -8.4760000000000002e-01 1.5980815950483818e+01 8.4539836651245572e+00 1.3264388193759427e+01 5 -5 -6
2950 525 70 -8.4760000000000002e-01 1.8702028259598649e+01 9.8480802035383679e+00 9.2584594823690942e+00 6 -5 -5
8477 2368 71 4.2380000000000001e-01 1.7363066743659882e+01 1.2614849725474137e+01 1.6753840912753304e+01 6 -4 -6
9986 2871 71 4.2380000000000001e-01 2.0615478242135097e+01 1.7340955236161559e+01 8.9087947186146117e+00 5 -3 -5
8479 2368 70 -8.4760000000000002e-01 1.7375458085881640e+01 1.1614950848667760e+01 1.6745916054038581e+01 6 -4 -6
9987 2871 71 4.2380000000000001e-01 2.2067972940593030e+01 1.7087068039342981e+01 9.6105536890230461e+00 5 -3 -5
8478 2368 71 4.2380000000000001e-01 1.7088979922409514e+01 1.1270961843688129e+01 1.7640128459519456e+01 6 -4 -6
2948 525 71 4.2380000000000001e-01 1.8615767959437420e+01 9.9641345782112349e+00 1.0247956717499852e+01 6 -5 -5
8625 2417 71 4.2380000000000001e-01 1.7058532575123380e+01 1.1717652660382479e+01 1.1455349668426429e+01 7 -6 -5
2328 318 71 4.2380000000000001e-01 1.5887342944392758e+01 1.1889343431740071e+01 1.9502384989281111e+01 4 -3 -7
3272 633 71 4.2380000000000001e-01 1.5833534413920306e+01 8.9013939589953281e+00 1.6294719203382009e+01 7 -6 -5
3274 633 70 -8.4760000000000002e-01 1.6693370751694168e+01 8.5336599410863609e+00 1.5940504967528344e+01 7 -6 -5
10265 2964 71 4.2380000000000001e-01 2.2168497155624380e+01 1.2736676438015708e+01 1.5046067657570433e+01 9 -4 -4
10266 2964 71 4.2380000000000001e-01 2.1182302342902133e+01 1.2425578636242946e+01 1.3782223202516333e+01 9 -4 -4
2047 224 70 -8.4760000000000002e-01 1.7570450685267602e+01 1.4292828588708062e+01 1.7249764556262726e+01 5 -5 -3
10267 2964 70 -8.4760000000000002e-01 2.1296399809534755e+01 1.2967752973828599e+01 1.4614715729037382e+01 9 -4 -4
3273 633 71 4.2380000000000001e-01 1.7278897161084057e+01 8.2609739259581367e+00 1.6703928930091713e+01 7 -6 -5
8319 2315 71 4.2380000000000001e-01 1.7778178556408470e+01 1.0428299246583167e+01 1.2733907570259301e+01 7 -4 -5
3410 679 71 4.2380000000000001e-01 2.1226154703469970e+01 8.7809090861601682e+00 1.3414772921790377e+01 5 -4 -4
2681 436 71 4.2380000000000001e-01 1.8898273429845474e+01 6.9475323023516120e+00 1.8029538433245989e+01 7 -4 -6
7333 1986 70 -8.4760000000000002e-01 2.3672512872546438e+01 1.3108157688732227e+01 1.6040276728522642e+01 7 -5 -7
2682 436 71 4.2380000000000001e-01 1.8808652954417255e+01 8.5708634095106859e+00 1.7876476156070385e+01 7 -4 -6
2683 436 70 -8.4760000000000002e-01 1.8304219976352432e+01 7.7456087526037241e+00 1.8130476430314928e+01 7 -4 -6
1861 162 70 -8.4760000000000002e-01 2.4784734059210599e+01 1.2183771603128195e+01 9.9858664944156708e+00 5 -8 -6
2467 364 70 -8.4760000000000002e-01 1.7161049423085409e+01 1.3977208071170356e+01 8.8213740768236448e+00 5 -5 -7
2465 364 71 4.2380000000000001e-01 1.7089950332648264e+01 1.4944303761566943e+01 9.0656788456589652e+00 5 -5 -7
6465 1697 71 4.2380000000000001e-01 2.0477512054745347e+01 1.4475731984119923e+01 1.5796961315528016e+01 3 -3 -5
2466 364 71 4.2380000000000001e-01 1.7010722575333823e+01 1.3415904929071125e+01 9.6352258001373219e+00 5 -5 -7
6698 1775 71 4.2380000000000001e-01 1.7218614085989415e+01 1.1173880418716067e+01 1.5109001858545579e+01 8 -4 -5
6699 1775 71 4.2380000000000001e-01 1.6462105540917349e+01 1.0048634993767589e+01 1.4198957060748413e+01 8 -4 -5
6700 1775 70 -8.4760000000000002e-01 1.6977338621376809e+01 1.0905396828437171e+01 1.4176415781579301e+01 8 -4 -5
2436 354 71 4.2380000000000001e-01 2.0728664329197322e+01 1.0023113096872226e+01 1.7467208062626074e+01 6 -3 -8
8197 2274 70 -8.4760000000000002e-01 2.1004450479928117e+01 7.9034976179115031e+00 1.9806921003142016e+01 5 -3 -6
2437 354 70 -8.4760000000000002e-01 1.9834865087826635e+01 9.8443805799273942e+00 1.7055878734310923e+01 6 -3 -8
2435 354 71 4.2380000000000001e-01 1.9307990725070930e+01 1.0693632014034891e+01 1.7021388234064194e+01 6 -3 -8
5995 1540 70 -8.4760000000000002e-01 1.9210244441926044e+01 1.4093634259701972e+01 1.2238972637879893e+01 8 -5 -8
2045 224 71 4.2380000000000001e-01 1.8099493944051332e+01 1.3730149330581259e+01 1.7884996258117553e+01 5 -5 -3
3209 612 71 4.2380000000000001e-01 2.1300796601620384e+01 1.5408051800927364e+01 1.0451470768570324e+01 5 -4 -5
3211 612 70 -8.4760000000000002e-01 2.1552319929230755e+01 1.4619373845646626e+01 1.1012485204730410e+01 5 -4 -5
5993 1540 71 4.2380000000000001e-01 1.9910522563161990e+01 1.4548906368507936e+01 1.1689106572393962e+01 8 -5 -8
3420 682 71 4.2380000000000001e-01 1.5773209160612900e+01 1.5114248964410621e+01 1.1272880906913016e+01 7 -4 -8
3421 682 70 -8.4760000000000002e-01 1.6218308196114499e+01 1.5700147692221302e+01 1.1950098744654595e+01 7 -4 -8
2201 276 71 4.2380000000000001e-01 2.1656298308926630e+01 1.1857582840544067e+01 8.8332035668432933e+00 3 -2 -8
2203 276 70 -8.4760000000000002e-01 2.1036983475005712e+01 1.2280506386307970e+01 9.4947160918012994e+00 3 -2 -8
3419 682 71 4.2380000000000001e-01 1.7009125865555383e+01 1.6149110534642013e+01 1.1534100386534043e+01 7 -4 -8
5994 1540 71 4.2380000000000001e-01 1.9563540049511708e+01 1.3930715167930554e+01 1.3160196859516381e+01 8 -5 -8