ITEM: TIMESTEP
0
ITEM: NUMBER OF ATOMS
10411
ITEM: BOX BOUNDS pp pp pp
6.6583954678277202e+00 5.3341604532144899e+01
6.6583954678277202e+00 5.3341604532144899e+01
6.6583954678277202e+00 5.3341604532144899e+01
ITEM: ATOMS id mol type mass q xu yu zu 
4351 992 70 15.9994 -0.8476 196.497 -174.002 -316.414 
4350 992 71 1.008 0.4238 197.345 -174.531 -316.457 
4349 992 71 1.008 0.4238 196.108 -173.922 -317.332 
7303 1976 70 15.9994 -0.8476 292.845 -265.479 -173.822 
7302 1976 71 1.008 0.4238 293.526 -266.204 -173.721 
7301 1976 71 1.008 0.4238 293.252 -264.706 -174.308 
10223 2950 71 1.008 0.4238 249.169 -223.819 -271.117 
9142 2589 70 15.9994 -0.8476 340.245 -132.342 -121.962 
8626 2417 70 15.9994 -0.8476 341.821 -267.81 -220.618 
8624 2417 71 1.008 0.4238 342.347 -267.063 -220.21 
1979 202 71 1.008 0.4238 340.396 -267.607 -309.143 
1981 202 70 15.9994 -0.8476 340.205 -268.531 -308.811 
1980 202 71 1.008 0.4238 340.396 -269.193 -309.535 
190 14 20 1.008 0.031 384.288 -176.722 -309.599 
184 14 12 12.011 0.166 383.598 -176.794 -308.792 
189 14 67 15.9994 -0.611 382.27 -176.832 -309.378 
593 43 20 1.008 0.032 338.931 -216.952 -222.839 
594 43 20 1.008 0.032 339.684 -217.666 -224.127 
7657 2094 70 15.9994 -0.8476 340.75 -363.873 -263.865 
7655 2094 71 1.008 0.4238 340.542 -364.5 -263.114 
2153 260 71 1.008 0.4238 292.799 -218.2 -265.451 
4715 1114 71 1.008 0.4238 242.074 -267.348 -265.119 
2154 260 71 1.008 0.4238 293.663 -217.857 -264.108 
2155 260 70 15.9994 -0.8476 292.749 -217.859 -264.512 
7656 2094 71 1.008 0.4238 340.149 -364.068 -264.639 
595 43 67 15.9994 -0.611 341.264 -217.181 -221.886 
9901 2842 70 15.9994 -0.8476 338.517 -83.9366 -172.674 
9899 2842 71 1.008 0.4238 337.727 -84.3226 -173.151 
601 43 21 1.008 0.398 342.188 -217.194 -221.716 
9900 2842 71 1.008 0.4238 339.269 -83.8126 -173.322 
589 43 64 12.011 0.158 339.612 -216.665 -223.619 
193 14 20 1.008 0.032 383.495 -174.65 -308.532 
2369 332 71 1.008 0.4238 334.537 -176.673 -272.547 
4717 1114 70 15.9994 -0.8476 241.579 -266.519 -264.861 
4716 1114 71 1.008 0.4238 242.214 -265.747 -264.83 
4884 1170 71 1.008 0.4238 201.784 -220.254 -177.109 
9939 2855 71 1.008 0.4238 428.791 -218.123 -410.689 
4883 1170 71 1.008 0.4238 200.249 -220.756 -176.868 
2455 360 70 15.9994 -0.8476 243.464 -124.623 -218.556 
4311 979 71 1.008 0.4238 242.381 -82.3293 -219.692 
4310 979 71 1.008 0.4238 243.895 -82.382 -219.085 
4312 979 70 15.9994 -0.8476 242.926 -82.2958 -218.855 
4885 1170 70 15.9994 -0.8476 200.938 -220.542 -177.559 
6298 1641 70 15.9994 -0.8476 288.922 -314.321 -225.533 
9185 2604 71 1.008 0.4238 295.649 -224.03 -264.28 
9186 2604 71 1.008 0.4238 296.015 -225.484 -264.926 
2454 360 71 1.008 0.4238 244.377 -124.251 -218.389 
3722 783 71 1.008 0.4238 245.709 -269.573 -222.324 
3724 783 70 15.9994 -0.8476 244.836 -269.384 -222.774 
3723 783 71 1.008 0.4238 244.586 -270.158 -223.355 
10225 2950 70 15.9994 -0.8476 248.505 -224.34 -270.581 
10224 2950 71 1.008 0.4238 248.175 -223.779 -269.822 
6555 1727 71 1.008 0.4238 383.122 -126.088 -268.539 
6556 1727 70 15.9994 -0.8476 383.433 -125.384 -267.901 
6554 1727 71 1.008 0.4238 384.425 -125.45 -267.789 
9853 2826 70 15.9994 -0.8476 336.4 -84.4131 -267.718 
9763 2796 70 15.9994 -0.8476 246.696 -225.693 -225.423 
9761 2796 71 1.008 0.4238 247.463 -225.272 -224.939 
195 14 21 1.008 0.398 382.286 -176.534 -310.318 
8379 2335 71 1.008 0.4238 380.788 -173.506 -271.86 
9140 2589 71 1.008 0.4238 339.865 -132.858 -122.729 
9940 2855 70 15.9994 -0.8476 429.155 -217.286 -411.097 
602 43 21 1.008 0.417 338.671 -216.066 -225.272 
9938 2855 71 1.008 0.4238 428.871 -216.498 -410.551 
9851 2826 71 1.008 0.4238 336.443 -83.6025 -268.302 
590 43 12 12.011 0.166 341.03 -216.31 -223.018 
599 43 20 1.008 0.032 341.897 -217.473 -224.588 
2453 360 71 1.008 0.4238 243.426 -125.011 -219.477 
10023 2883 71 1.008 0.4238 380.426 -219.001 -219.475 
592 43 67 15.9994 -0.631 339.104 -215.619 -224.482 
1784 137 71 1.008 0.4238 339.061 -216.124 -264.518 
9762 2796 71 1.008 0.4238 245.836 -225.389 -225.015 
2572 399 70 15.9994 -0.8476 244.221 -271.353 -317.979 
2571 399 71 1.008 0.4238 244.176 -270.978 -318.905 
8378 2335 71 1.008 0.4238 380.218 -172.447 -270.755 
2570 399 71 1.008 0.4238 243.365 -271.828 -317.771 
9852 2826 71 1.008 0.4238 336.73 -85.2082 -268.227 
10304 2977 71 1.008 0.4238 247.494 -317.875 -221.223 
5010 1212 71 1.008 0.4238 293.575 -179.755 -173.635 
5009 1212 71 1.008 0.4238 295.04 -179.925 -174.336 
5011 1212 70 15.9994 -0.8476 294.45 -179.307 -173.817 
591 43 64 12.011 0.158 342.066 -216.529 -224.15 
10306 2977 70 15.9994 -0.8476 247.084 -316.973 -221.362 
2802 476 71 1.008 0.4238 293.431 -173.803 -179.356 
10226 2951 71 1.008 0.4238 380.961 -131.765 -84.3693 
10228 2951 70 15.9994 -0.8476 381.644 -132.456 -84.6077 
6131 1586 71 1.008 0.4238 342.494 -170.487 -310.414 
6133 1586 70 15.9994 -0.8476 342.022 -171.357 -310.555 
6132 1586 71 1.008 0.4238 342.343 -171.777 -311.404 
8625 2417 71 1.008 0.4238 342.409 -268.612 -220.725 
5804 1477 71 1.008 0.4238 249.273 -179.912 -269.977 
10305 2977 71 1.008 0.4238 247.603 -316.289 -220.85 
2617 414 70 15.9994 -0.8476 193.403 -217.951 -222.761 
2424 350 71 1.008 0.4238 382.173 -178.082 -312.503 
2423 350 71 1.008 0.4238 380.684 -177.9 -311.857 
2616 414 71 1.008 0.4238 193.42 -216.952 -222.758 
2425 350 70 15.9994 -0.8476 381.423 -178.55 -312.037 
7397 2008 71 1.008 0.4238 334.214 -272.732 -170.432 
6119 1582 71 1.008 0.4238 287.379 -216.092 -357.341 
10227 2951 71 1.008 0.4238 381.553 -132.694 -85.5747 
8091 2239 71 1.008 0.4238 287.85 -266.512 -263.015 
6296 1641 71 1.008 0.4238 288.607 -315.073 -226.111 
9594 2740 71 1.008 0.4238 334.462 -179.934 -219.647 
186 14 67 15.9994 -0.631 383.662 -179.36 -308.62 
4070 899 71 1.008 0.4238 474.05 -81.9086 -314.904 
4071 899 71 1.008 0.4238 475.598 -81.5228 -315.25 
4261 962 70 15.9994 -0.8476 194.622 -261.847 -363.032 
4072 899 70 15.9994 -0.8476 474.987 -81.9001 -314.554 
6297 1641 71 1.008 0.4238 289.582 -313.765 -226.04 
596 43 20 1.008 0.031 340.843 -215.333 -222.664 
1786 137 70 15.9994 -0.8476 339.204 -215.135 -264.515 
1830 152 71 1.008 0.4238 150.094 -123.639 -272.459 
7330 1985 70 15.9994 -0.8476 195.477 -262.269 -218.341 
7328 1985 71 1.008 0.4238 195.952 -263.133 -218.509 
7329 1985 71 1.008 0.4238 195.133 -261.905 -219.207 
598 43 20 1.008 0.032 341.769 -215.844 -224.937 
5356 1327 70 15.9994 -0.8476 294.666 -215.108 -219.588 
5355 1327 71 1.008 0.4238 293.904 -215.108 -218.94 
7399 2008 70 15.9994 -0.8476 334.031 -272.964 -169.476 
1831 152 70 15.9994 -0.8476 150.889 -123.764 -273.052 
8092 2239 70 15.9994 -0.8476 287.572 -266.456 -262.056 
5184 1270 71 1.008 0.4238 427.31 -176.716 -261.797 
196 14 21 1.008 0.417 384.465 -179.466 -309.214 
7398 2008 71 1.008 0.4238 334.499 -272.312 -168.88 
1829 152 71 1.008 0.4238 150.991 -124.734 -273.272 
9932 2853 71 1.008 0.4238 248.58 -176.956 -273.226 
9187 2604 70 15.9994 -0.8476 296.327 -224.542 -264.808 
10060 2895 70 15.9994 -0.8476 299.124 -226.541 -223.027 
8477 2368 71 1.008 0.4238 297.193 -172.097 -266.855 
7669 2098 70 15.9994 -0.8476 296.53 -219.72 -316.472 
4216 947 70 15.9994 -0.8476 396.978 -129.278 -272.621 
8479 2368 70 15.9994 -0.8476 296.711 -172.551 -266.106 
10028 2885 71 1.008 0.4238 390.324 -168.968 -217.476 
2329 318 70 15.9994 -0.8476 205.197 -127.052 -311.205 
2327 318 71 1.008 0.4238 205.181 -127.563 -312.065 
2328 318 71 1.008 0.4238 205.416 -127.673 -310.453 
7667 2098 71 1.008 0.4238 297.236 -219.954 -315.803 
8478 2368 71 1.008 0.4238 297.372 -172.858 -265.421 
3272 633 71 1.008 0.4238 343.078 -270.326 -219.756 
3274 633 70 15.9994 -0.8476 343.493 -269.888 -220.554 
7668 2098 71 1.008 0.4238 296.943 -219.648 -317.38 
6053 1560 71 1.008 0.4238 252.505 -317.569 -217.007 
6054 1560 71 1.008 0.4238 251.279 -318.178 -217.899 
6055 1560 70 15.9994 -0.8476 252.201 -318.351 -217.551 
10265 2964 71 1.008 0.4238 443.027 -174.803 -172.786 
10266 2964 71 1.008 0.4238 442.065 -174.114 -173.91 
2047 224 70 15.9994 -0.8476 253.131 -218.085 -123.659 
4272 966 71 1.008 0.4238 252.056 -171.149 -314.675 
4271 966 71 1.008 0.4238 250.835 -170.688 -315.657 
4273 966 70 15.9994 -0.8476 251.092 -170.885 -314.711 
10267 2964 70 15.9994 -0.8476 442.09 -174.531 -173.002 
8320 2315 70 15.9994 -0.8476 346.917 -173.932 -224.483 
8318 2315 71 1.008 0.4238 346.245 -173.752 -225.202 
3273 633 71 1.008 0.4238 344.342 -269.435 -220.282 
2948 525 71 1.008 0.4238 300.309 -222.47 -225.382 
8319 2315 71 1.008 0.4238 347.348 -173.073 -224.206 
2949 525 71 1.008 0.4238 299.462 -223.654 -224.641 
2950 525 70 15.9994 -0.8476 299.811 -223.327 -225.519 
707 51 67 15.9994 -0.611 256.781 -271.61 -224.324 
3410 679 71 1.008 0.4238 258.22 -175.75 -174.177 
3412 679 70 15.9994 -0.8476 258.345 -175.324 -173.281 
1507 108 67 15.9994 -0.631 258.384 -220.778 -176.282 
2681 436 71 1.008 0.4238 349.621 -178.06 -265.36 
7333 1986 70 15.9994 -0.8476 350.937 -218.401 -311.237 
2682 436 71 1.008 0.4238 350.555 -177.167 -266.358 
2683 436 70 15.9994 -0.8476 349.723 -177.719 -266.294 
4215 947 71 1.008 0.4238 396.843 -129.948 -271.89 
1861 162 70 15.9994 -0.8476 256.244 -360.038 -272.642 
2467 364 70 15.9994 -0.8476 252.245 -220.794 -315.362 
2465 364 71 1.008 0.4238 253.005 -220.504 -314.78 
6465 1697 71 1.008 0.4238 161.691 -126.854 -217.928 
2466 364 71 1.008 0.4238 252.488 -220.654 -316.322 
6698 1775 71 1.008 0.4238 392.118 -175.845 -222.788 
6699 1775 71 1.008 0.4238 391.475 -177.116 -221.989 
6700 1775 70 15.9994 -0.8476 392.063 -176.843 -222.751 
7331 1986 71 1.008 0.4238 350.135 -218.998 -311.224 
1860 162 71 1.008 0.4238 256.007 -359.709 -271.728 
2436 354 71 1.008 0.4238 300.483 -128.819 -359.652 
8196 2274 71 1.008 0.4238 255.041 -132.792 -264.288 
8197 2274 70 15.9994 -0.8476 255.912 -132.418 -263.968 
3429 685 71 1.008 0.4238 255.448 -223.666 -122.316 
2437 354 70 15.9994 -0.8476 299.568 -129.164 -359.441 
2435 354 71 1.008 0.4238 299.571 -129.583 -358.534 
5995 1540 70 15.9994 -0.8476 394.006 -218.204 -360.476 
2045 224 71 1.008 0.4238 252.507 -218.861 -123.747 
3209 612 71 1.008 0.4238 256.729 -173.628 -222.351 
3211 612 70 15.9994 -0.8476 255.883 -173.195 -222.04 
10059 2895 71 1.008 0.4238 299.17 -225.545 -222.957 
5993 1540 71 1.008 0.4238 394.93 -218.583 -360.541 
3420 682 71 1.008 0.4238 346.977 -170.091 -357.951 
3421 682 70 15.9994 -0.8476 347.417 -169.481 -358.61 
2201 276 71 1.008 0.4238 160.543 -83.723 -362.376 
2203 276 70 15.9994 -0.8476 161.463 -84.1057 -362.46 
3419 682 71 1.008 0.4238 346.959 -168.592 -358.599 
5994 1540 71 1.008 0.4238 393.986 -217.497 -359.769 
3210 612 71 1.008 0.4238 255.675 -172.41 -222.624 
9904 2843 70 15.9994 -0.8476 255.893 -309.508 -319.843 
7911 2179 71 1.008 0.4238 258.128 -128.731 -217.919 
2202 276 71 1.008 0.4238 161.841 -84.2685 -361.548 
8961 2529 71 1.008 0.4238 348.935 -217.769 -270.796 
9903 2843 71 1.008 0.4238 256.167 -309.56 -318.883 
8962 2529 70 15.9994 -0.8476 348.171 -218.354 -270.525 
7332 1986 71 1.008 0.4238 350.828 -217.681 -310.552 
8195 2274 71 1.008 0.4238 255.924 -132.41 -262.969 
7990 2205 70 15.9994 -0.8476 258.356 -262.916 -126.846 
8960 2529 71 1.008 0.4238 347.532 -217.829 -269.963 
6772 1799 70 15.9994 -0.8476 303.26 -262.413 -317.216 
706 51 20 1.008 0.032 254.446 -272.265 -225.281 
4560 1062 71 1.008 0.4238 302.461 -28.7183 -172.221 
2589 405 71 1.008 0.4238 251.125 -172.018 -225.625 
2590 405 70 15.9994 -0.8476 251.058 -173.01 -225.526 
9383 2670 71 1.008 0.4238 252.971 -226.582 -77.7988 
702 51 12 12.011 0.166 256.545 -272.831 -225.002 
8816 2481 71 1.008 0.4238 344.597 -176.824 -225.637 
1859 162 71 1.008 0.4238 256.545 -360.99 -272.586 
597 43 67 15.9994 -0.631 343.445 -216.328 -223.798 
7726 2117 70 15.9994 -0.8476 393.158 -216.268 -269.777 
7725 2117 71 1.008 0.4238 393.011 -215.763 -270.628 
4214 947 71 1.008 0.4238 397.792 -129.521 -273.148 
4559 1062 71 1.008 0.4238 303.909 -28.4505 -172.926 
600 43 58 1.008 0.417 343.896 -216.407 -224.69 
9988 2871 70 15.9994 -0.8476 251.245 -123.64 -226.073 
10030 2885 70 15.9994 -0.8476 389.953 -169.017 -216.549 
5604 1410 71 1.008 0.4238 304.106 -168.534 -309.612 
6466 1697 70 15.9994 -0.8476 162.016 -126.247 -217.202 
6464 1697 71 1.008 0.4238 161.349 -125.516 -217.055 
5605 1410 70 15.9994 -0.8476 304.005 -169.463 -309.258 
713 51 21 1.008 0.398 256.043 -271.443 -223.704 
7912 2179 70 15.9994 -0.8476 258.546 -129.168 -217.122 
6771 1799 71 1.008 0.4238 302.734 -262.064 -316.441 
4143 923 71 1.008 0.4238 158.9 -315.848 -122.134 
4144 923 70 15.9994 -0.8476 159.41 -315.818 -122.994 
2046 224 71 1.008 0.4238 252.778 -217.449 -122.973 
3430 685 70 15.9994 -0.8476 255.293 -222.901 -122.941 
4142 923 71 1.008 0.4238 160.376 -316 -122.815 
10029 2885 71 1.008 0.4238 390.701 -169.141 -215.896 
701 51 64 12.011 0.158 255.263 -272.766 -225.85 
2588 405 71 1.008 0.4238 250.768 -173.414 -226.393 
8817 2481 71 1.008 0.4238 343.552 -175.61 -225.955 
7421 2016 71 1.008 0.4238 302.646 -225.961 -80.1189 
7545 2057 71 1.008 0.4238 389.511 -169.074 -312.831 
708 51 20 1.008 0.031 257.428 -272.909 -225.656 
7544 2057 71 1.008 0.4238 390.958 -169.675 -313.292 
6770 1799 71 1.008 0.4238 304.092 -261.869 -317.326 
7546 2057 70 15.9994 -0.8476 390.493 -169.077 -312.639 
7724 2117 71 1.008 0.4238 393.767 -215.746 -269.181 
5966 1531 71 1.008 0.4238 351.603 -226.564 -172.681 
8818 2481 70 15.9994 -0.8476 343.64 -176.538 -225.592 
5312 1313 71 1.008 0.4238 251.108 -225.598 -262.04 
9987 2871 71 1.008 0.4238 252.046 -123.043 -226.093 
3428 685 71 1.008 0.4238 255.992 -222.202 -122.792 
7791 2139 71 1.008 0.4238 299.421 -215.214 -215.507 
7792 2139 70 15.9994 -0.8476 298.933 -216.015 -215.159 
6938 1855 71 1.008 0.4238 349.462 -173.59 -262.389 
705 51 20 1.008 0.032 255.429 -272.071 -226.721 
6279 1635 71 1.008 0.4238 258.773 -177.416 -269.874 
3411 679 71 1.008 0.4238 259.18 -174.774 -173.287 
1508 108 20 1.008 0.032 258.956 -218.864 -176.841 
1510 108 58 1.008 0.417 258.797 -221.701 -176.259 
7989 2205 71 1.008 0.4238 259.075 -263.047 -126.165 
7910 2179 71 1.008 0.4238 259.267 -128.578 -216.759 
9227 2618 71 1.008 0.4238 400.123 -272.201 -179.272 
6280 1635 70 15.9994 -0.8476 259.056 -176.701 -269.235 
3437 688 71 1.008 0.4238 266.254 -170.929 -85.3734 
7077 1901 71 1.008 0.4238 400.152 -269.883 -365.239 
1509 108 20 1.008 0.032 260.134 -219.667 -175.898 
1501 108 64 12.011 0.158 259.421 -219.805 -176.703 
10163 2930 71 1.008 0.4238 352.636 -125.602 -171.398 
10164 2930 71 1.008 0.4238 354.111 -124.907 -171.487 
7988 2205 71 1.008 0.4238 258.749 -262.98 -127.763 
1505 108 67 15.9994 -0.611 260.597 -221.662 -177.717 
1500 108 12 12.011 0.166 260.116 -220.288 -177.963 
1506 108 20 1.008 0.031 259.362 -220.366 -178.755 
1511 108 21 1.008 0.398 261.231 -221.616 -176.957 
1512 108 21 1.008 0.417 260.788 -217.469 -179.041 
6278 1635 71 1.008 0.4238 259.836 -177.024 -268.699 
1502 108 67 15.9994 -0.631 260.676 -217.958 -178.186 
1499 108 64 12.011 0.158 261.191 -219.267 -178.344 
1503 108 20 1.008 0.032 261.473 -219.44 -179.338 
1504 108 20 1.008 0.032 262.078 -219.459 -177.777 
6970 1865 70 15.9994 -0.8476 120.894 -127.699 -266.736 
6969 1865 71 1.008 0.4238 120.668 -126.893 -266.189 
6968 1865 71 1.008 0.4238 121.032 -128.484 -266.131 
7466 2031 71 1.008 0.4238 357.818 -315.144 -224.505 
7468 2031 70 15.9994 -0.8476 356.967 -315.241 -225.02 
10184 2937 71 1.008 0.4238 216.15 -222.255 -268.804 
10186 2937 70 15.9994 -0.8476 215.613 -221.438 -269.013 
7998 2208 71 1.008 0.4238 310.479 -176.43 -319.968 
10185 2937 71 1.008 0.4238 215.14 -221.13 -268.188 
427 31 67 15.9994 -0.611 217.585 -179.882 -266.971 
428 31 20 1.008 0.031 216.784 -178.154 -266.264 
422 31 12 12.011 0.166 216.856 -178.692 -267.21 
425 31 20 1.008 0.032 214.943 -179.654 -266.91 
424 31 67 15.9994 -0.631 214.56 -177.844 -267.824 
426 31 20 1.008 0.032 215.562 -179.514 -268.607 
421 31 64 12.011 0.158 215.428 -179.022 -267.673 
5326 1317 70 15.9994 -0.8476 407.081 -224.075 -270.565 
431 31 20 1.008 0.032 218.567 -178.233 -268.51 
434 31 21 1.008 0.417 214.46 -177.477 -266.956 
423 31 64 12.011 0.158 217.533 -177.935 -268.317 
430 31 20 1.008 0.032 217.096 -178.167 -269.245 
429 31 67 15.9994 -0.631 217.497 -176.464 -268.046 
2162 263 71 1.008 0.4238 172.46 -266.65 -314.665 
432 31 58 1.008 0.417 218.435 -176.257 -267.844 
7467 2031 71 1.008 0.4238 356.189 -315.12 -224.404 
579 42 20 1.008 0.032 263.8 -174.51 -312.828 
587 42 21 1.008 0.398 263.806 -172.216 -313.442 
581 42 67 15.9994 -0.611 263.621 -171.951 -312.5 
582 42 20 1.008 0.031 265.49 -172.668 -312.08 
576 42 12 12.011 0.166 264.494 -172.764 -311.642 
575 42 64 12.011 0.158 263.996 -174.251 -311.799 
580 42 20 1.008 0.032 263.039 -174.351 -311.287 
578 42 67 15.9994 -0.631 264.872 -175.132 -311.147 
577 42 64 12.011 0.158 264.558 -172.381 -310.17 
588 42 21 1.008 0.417 264.434 -175.998 -311.157 
583 42 67 15.9994 -0.631 263.337 -171.774 -309.829 
4134 920 71 1.008 0.4238 313.368 -223.677 -219.794 
7964 2197 71 1.008 0.4238 312.959 -175.912 -177.122 
4135 920 70 15.9994 -0.8476 313.521 -222.94 -220.453 
8276 2301 71 1.008 0.4238 357.266 -171.911 -268.927 
8277 2301 71 1.008 0.4238 356.916 -173.464 -268.563 
8278 2301 70 15.9994 -0.8476 357.486 -172.678 -268.325 
8846 2491 71 1.008 0.4238 308.659 -130.57 -217.928 
4769 1132 71 1.008 0.4238 215.861 -310.859 -270.953 
7231 1952 70 15.9994 -0.8476 219.785 -318.6 -218.949 
7229 1952 71 1.008 0.4238 218.931 -319.089 -219.127 
7230 1952 71 1.008 0.4238 220.193 -318.94 -218.101 
3111 579 71 1.008 0.4238 400.208 -263.912 -223.034 
585 42 20 1.008 0.032 264.682 -173.236 -309.492 
8847 2491 71 1.008 0.4238 307.039 -130.45 -217.768 
8848 2491 70 15.9994 -0.8476 307.808 -130.333 -218.396 
7966 2197 70 15.9994 -0.8476 312.614 -174.975 -177.059 
4770 1132 71 1.008 0.4238 217.487 -310.797 -271.09 
7965 2197 71 1.008 0.4238 313.009 -174.529 -176.256 
6521 1716 71 1.008 0.4238 407.811 -216.704 -408.71 
6523 1716 70 15.9994 -0.8476 407.74 -215.799 -408.291 
586 42 58 1.008 0.417 263.146 -171.179 -310.605 
584 42 20 1.008 0.032 265.361 -171.678 -309.967 
3577 734 70 15.9994 -0.8476 356.669 -270.666 -216.941 
3575 734 71 1.008 0.4238 357.237 -271.465 -216.744 
3355 660 70 15.9994 -0.8476 360.585 -126.007 -225.155 
7078 1901 70 15.9994 -0.8476 399.843 -270.489 -365.973 
3107 578 71 1.008 0.4238 352.424 -179.122 -263.899 
4547 1058 71 1.008 0.4238 218.885 -226.339 -216.219 
4549 1058 70 15.9994 -0.8476 218.079 -225.957 -215.766 
3439 688 70 15.9994 -0.8476 265.654 -170.154 -85.1711 
10165 2930 70 15.9994 -0.8476 353.621 -125.765 -171.337 
2673 433 71 1.008 0.4238 357.662 -226.047 -178.101 
3108 578 71 1.008 0.4238 352.166 -177.635 -263.276 
3109 578 70 15.9994 -0.8476 352.775 -178.428 -263.271 
4452 1026 71 1.008 0.4238 219.832 -122.008 -216.405 
4771 1132 70 15.9994 -0.8476 216.726 -310.913 -270.453 
3112 579 70 15.9994 -0.8476 399.948 -263.073 -222.556 
3110 579 71 1.008 0.4238 400.7 -262.779 -221.966 
4062 896 71 1.008 0.4238 121.359 -309.641 -359.279 
4063 896 70 15.9994 -0.8476 120.865 -309.772 -358.42 
3576 734 71 1.008 0.4238 356.481 -270.172 -216.092 
5871 1499 71 1.008 0.4238 314.565 -85.9966 -216.167 
2672 433 71 1.008 0.4238 359.193 -226.61 -178.174 
8353 2326 70 15.9994 -0.8476 215.724 -215.66 -314.008 
8352 2326 71 1.008 0.4238 216.579 -215.576 -314.519 
4061 896 71 1.008 0.4238 120.619 -308.882 -358.038 
7623 2083 71 1.008 0.4238 353.987 -220.597 -170 
7622 2083 71 1.008 0.4238 354.559 -221.649 -168.89 
7624 2083 70 15.9994 -0.8476 353.802 -221.039 -169.122 
6274 1633 70 15.9994 -0.8476 403.328 -75.4652 -308.88 
6272 1633 71 1.008 0.4238 403.401 -75.683 -309.853 
5408 1345 71 1.008 0.4238 407.747 -268.857 -216.158 
5409 1345 71 1.008 0.4238 406.204 -269.27 -216.495 
4133 920 71 1.008 0.4238 314.355 -223.126 -220.973 
5324 1317 71 1.008 0.4238 407.006 -224.591 -269.711 
5786 1471 71 1.008 0.4238 314.328 -218.816 -268.731 
2164 263 70 15.9994 -0.8476 173.344 -267.116 -314.706 
7852 2159 70 15.9994 -0.8476 361.063 -179.173 -174.991 
5325 1317 71 1.008 0.4238 407.254 -224.706 -271.321 
2163 263 71 1.008 0.4238 173.297 -267.966 -314.181 
5736 1454 71 1.008 0.4238 310.223 -127.001 -179.637 
3354 660 71 1.008 0.4238 360.47 -126.007 -226.149 
7850 2159 71 1.008 0.4238 360.704 -179.266 -174.063 
3438 688 71 1.008 0.4238 266.202 -169.322 -85.086 
2187 271 71 1.008 0.4238 312.416 -122.392 -221.973 
2188 271 70 15.9994 -0.8476 311.447 -122.203 -222.13 
2186 271 71 1.008 0.4238 311.124 -122.745 -222.907 
1921 182 70 15.9994 -0.8476 263.911 -215.584 -218.235 
1919 182 71 1.008 0.4238 263.629 -216.358 -218.802 
5872 1499 70 15.9994 -0.8476 313.837 -86.4821 -216.652 
5588 1405 71 1.008 0.4238 310.533 -216.166 -365.672 
9229 2618 70 15.9994 -0.8476 400.244 -273.103 -178.857 
5590 1405 70 15.9994 -0.8476 309.69 -215.716 -365.966 
2720 449 71 1.008 0.4238 213.628 -178.004 -215.137 
6082 1569 70 15.9994 -0.8476 360.513 -179.364 -319.391 
8033 2220 71 1.008 0.4238 307.296 -217.334 -309.529 
5410 1345 70 15.9994 -0.8476 406.917 -269.277 -215.793 
8034 2220 71 1.008 0.4238 306.203 -216.465 -308.68 
8035 2220 70 15.9994 -0.8476 306.936 -217.143 -308.615 
3353 660 71 1.008 0.4238 360.098 -126.788 -224.764 
7247 1958 71 1.008 0.4238 318.748 -217.416 -365.943 
5388 1338 71 1.008 0.4238 277.002 -77.9038 -319.904 
6965 1864 71 1.008 0.4238 273.864 -169.626 -319.367 
5787 1471 71 1.008 0.4238 314.802 -218.568 -270.274 
8831 2486 71 1.008 0.4238 408.48 -220.906 -266.957 
8833 2486 70 15.9994 -0.8476 408.999 -220.431 -266.247 
8832 2486 71 1.008 0.4238 408.779 -219.456 -266.27 
4416 1014 71 1.008 0.4238 408.282 -123.622 -219.814 
7248 1958 71 1.008 0.4238 317.149 -217.605 -366.218 
4415 1014 71 1.008 0.4238 409.217 -124.277 -218.646 
4417 1014 70 15.9994 -0.8476 408.431 -124.431 -219.246 
5788 1471 70 15.9994 -0.8476 314.982 -218.338 -269.317 
3868 831 70 15.9994 -0.8476 269.104 -221.785 -310.393 
5140 1255 70 15.9994 -0.8476 316.602 -175.669 -224.386 
3866 831 71 1.008 0.4238 269.869 -222.428 -310.402 
5179 1268 70 15.9994 -0.8476 130.325 -132.734 -174.274 
4612 1079 70 15.9994 -0.8476 225.403 -178.762 -269.704 
5680 1435 70 15.9994 -0.8476 320.445 -179.506 -266.199 
4763 1130 71 1.008 0.4238 229.076 -132.139 -270.033 
2555 394 71 1.008 0.4238 224.436 -218.469 -217.299 
3867 831 71 1.008 0.4238 269.043 -221.326 -311.28 
7851 2159 71 1.008 0.4238 362.054 -179.311 -174.98 
2557 394 70 15.9994 -0.8476 223.985 -217.676 -217.707 
5138 1255 71 1.008 0.4238 315.919 -175.323 -223.743 
4611 1079 71 1.008 0.4238 226.298 -178.32 -269.649 
7835 2154 71 1.008 0.4238 269.778 -177.464 -169.134 
2556 394 71 1.008 0.4238 224.394 -217.483 -218.6 
2300 309 71 1.008 0.4238 366.896 -170.1 -317.299 
5351 1326 71 1.008 0.4238 270.061 -171.861 -315.18 
7395 2007 71 1.008 0.4238 363.712 -269.264 -267.651 
2302 309 70 15.9994 -0.8476 366.813 -169.181 -317.683 
5353 1326 70 15.9994 -0.8476 271.025 -172.071 -315.021 
5352 1326 71 1.008 0.4238 271.307 -172.818 -315.623 
6839 1822 71 1.008 0.4238 270.202 -130.58 -224.972 
6841 1822 70 15.9994 -0.8476 270.397 -131.561 -224.966 
5078 1235 71 1.008 0.4238 271.466 -126.171 -318.023 
5079 1235 71 1.008 0.4238 272.813 -127.06 -317.773 
6840 1822 71 1.008 0.4238 270.973 -131.783 -224.179 
4784 1137 71 1.008 0.4238 318.481 -176.46 -310.936 
4786 1137 70 15.9994 -0.8476 317.926 -176.663 -310.129 
4785 1137 71 1.008 0.4238 318.51 -176.669 -309.317 
9868 2831 70 15.9994 -0.8476 321.662 -174.399 -265.168 
9866 2831 71 1.008 0.4238 322.142 -174.894 -264.444 
9277 2634 70 15.9994 -0.8476 271.896 -226.285 -264.132 
9807 2811 71 1.008 0.4238 319.664 -267.494 -314.873 
9276 2634 71 1.008 0.4238 271.171 -225.744 -263.707 
9808 2811 70 15.9994 -0.8476 319.039 -268.272 -314.805 
9806 2811 71 1.008 0.4238 318.984 -268.734 -315.69 
5485 1370 70 15.9994 -0.8476 365.537 -219.819 -263.491 
5539 1388 70 15.9994 -0.8476 227.696 -173.007 -268.469 
5537 1388 71 1.008 0.4238 227.863 -172.56 -267.591 
5484 1370 71 1.008 0.4238 365.234 -220.393 -264.252 
5080 1235 70 15.9994 -0.8476 271.864 -126.919 -317.492 
4764 1130 71 1.008 0.4238 228.817 -130.526 -270.016 
4765 1130 70 15.9994 -0.8476 228.4 -131.422 -269.863 
5594 1407 71 1.008 0.4238 275.909 -171.164 -130.885 
5596 1407 70 15.9994 -0.8476 274.975 -171.455 -130.679 
5595 1407 71 1.008 0.4238 274.557 -171.841 -131.502 
5483 1370 71 1.008 0.4238 366.517 -219.95 -263.343 
6608 1745 71 1.008 0.4238 322.044 -221.544 -316.277 
2913 513 71 1.008 0.4238 228.25 -177.332 -266.789 
7396 2007 70 15.9994 -0.8476 362.855 -269.761 -267.79 
8549 2392 71 1.008 0.4238 363.972 -267.517 -312.455 
7394 2007 71 1.008 0.4238 363.022 -270.743 -267.709 
2912 513 71 1.008 0.4238 229.178 -176.61 -267.922 
2914 513 70 15.9994 -0.8476 228.858 -176.56 -266.976 
6610 1745 70 15.9994 -0.8476 322.684 -222.164 -316.73 
8551 2392 70 15.9994 -0.8476 364.827 -267.989 -312.24 
8550 2392 71 1.008 0.4238 365.369 -268.093 -313.074 
2832 486 71 1.008 0.4238 225.334 -264.688 -360.68 
2833 486 70 15.9994 -0.8476 225.711 -264.074 -359.987 
2831 486 71 1.008 0.4238 225.757 -263.145 -360.353 
9867 2831 71 1.008 0.4238 321.729 -174.912 -266.024 
4046 891 71 1.008 0.4238 367.924 -219.395 -265.45 
4048 891 70 15.9994 -0.8476 368.009 -218.568 -266.006 
4047 891 71 1.008 0.4238 367.099 -218.244 -266.263 
6609 1745 71 1.008 0.4238 322.825 -221.868 -317.674 
6539 1722 71 1.008 0.4238 230.428 -82.204 -172.789 
7238 1955 71 1.008 0.4238 275.036 -173.57 -272.515 
7240 1955 70 15.9994 -0.8476 274.046 -173.433 -272.483 
4338 988 71 1.008 0.4238 322.678 -178.746 -217.406 
4339 988 70 15.9994 -0.8476 322.183 -178.174 -216.751 
7837 2154 70 15.9994 -0.8476 269.022 -177.992 -168.748 
4337 988 71 1.008 0.4238 321.463 -178.713 -216.315 
5864 1497 71 1.008 0.4238 275.711 -170.492 -216.981 
5866 1497 70 15.9994 -0.8476 274.904 -170.126 -217.445 
5865 1497 71 1.008 0.4238 274.735 -170.649 -218.281 
7034 1887 71 1.008 0.4238 227.026 -216.163 -216.111 
2301 309 71 1.008 0.4238 366.949 -168.503 -316.961 
9245 2624 71 1.008 0.4238 365.357 -215.18 -271.397 
9821 2816 71 1.008 0.4238 271.67 -173.076 -308.627 
9473 2700 71 1.008 0.4238 322.474 -223.046 -309.51 
5538 1388 71 1.008 0.4238 227.899 -172.37 -269.212 
6478 1701 70 15.9994 -0.8476 276.56 -127.782 -226.017 
5178 1268 71 1.008 0.4238 131.029 -132.544 -174.958 
5139 1255 71 1.008 0.4238 317.308 -174.976 -224.529 
7036 1887 70 15.9994 -0.8476 226.244 -215.733 -215.66 
1895 174 71 1.008 0.4238 229.113 -366.789 -359.075 
5678 1435 71 1.008 0.4238 319.621 -179.536 -265.634 
487 35 20 1.008 0.032 275.55 -178.031 -272.871 
6787 1804 70 15.9994 -0.8476 369.701 -215.417 -268.432 
6785 1804 71 1.008 0.4238 369.79 -216.281 -267.936 
10393 3006 70 15.9994 -0.8476 183.773 -171.115 -220.257 
10392 3006 71 1.008 0.4238 182.896 -171.286 -219.808 
5679 1435 71 1.008 0.4238 320.229 -179.823 -267.122 
7249 1958 70 15.9994 -0.8476 317.937 -217.951 -365.707 
6477 1701 71 1.008 0.4238 276.93 -128.711 -226.024 
36 3 20 1.008 0.031 370.779 -218.97 -216.972 
1897 174 70 15.9994 -0.8476 230.016 -366.65 -358.668 
229 17 20 1.008 0.032 276.742 -179.771 -178.635 
6522 1716 71 1.008 0.4238 408.299 -215.149 -408.806 
3315 647 71 1.008 0.4238 270.382 -215.497 -217.365 
9275 2634 71 1.008 0.4238 272.575 -226.534 -263.441 
7035 1887 71 1.008 0.4238 225.528 -215.553 -216.335 
7239 1955 71 1.008 0.4238 273.615 -173.936 -273.232 
4610 1079 71 1.008 0.4238 225.522 -179.755 -269.722 
3204 610 71 1.008 0.4238 270.43 -132.864 -272.946 
8868 2498 71 1.008 0.4238 221.643 -172.678 -262.402 
9475 2700 70 15.9994 -0.8476 323.033 -222.349 -309.06 
41 3 21 1.008 0.398 369.546 -218.368 -215.297 
7614 2080 71 1.008 0.4238 368.955 -220.576 -215.314 
35 3 67 15.9994 -0.611 370.161 -217.586 -215.618 
231 17 67 15.9994 -0.611 277.055 -179.978 -176.172 
7836 2154 71 1.008 0.4238 268.24 -177.389 -168.592 
6223 1616 70 15.9994 -0.8476 366.756 -226.719 -215.228 
8380 2335 70 15.9994 -0.8476 379.963 -173.147 -271.423 
10024 2883 70 15.9994 -0.8476 379.73 -218.632 -220.09 
2615 414 71 1.008 0.4238 193.373 -218.287 -221.82 
4230 952 71 1.008 0.4238 286.214 -176.895 -223.299 
4231 952 70 15.9994 -0.8476 286.456 -177.318 -224.172 
971 70 20 1.008 0.032 284.544 -170.953 -226.068 
6540 1722 71 1.008 0.4238 231.678 -82.5665 -171.802 
10391 3006 71 1.008 0.4238 184.443 -170.817 -219.577 
6541 1722 70 15.9994 -0.8476 231.422 -82.1699 -172.684 
237 17 21 1.008 0.398 277.664 -180.031 -175.382 
10022 2883 71 1.008 0.4238 378.83 -218.975 -219.821 
9563 2730 71 1.008 0.4238 333.426 -267.329 -357.842 
9828 2818 71 1.008 0.4238 282.351 -224.296 -178.959 
6725 1784 71 1.008 0.4238 284.382 -225.418 -273.035 
6727 1784 70 15.9994 -0.8476 284.583 -224.446 -272.921 
4229 952 71 1.008 0.4238 285.637 -177.403 -224.739 
7762 2129 70 15.9994 -0.8476 280.824 -131.126 -75.9132 
6593 1740 71 1.008 0.4238 327.76 -179.21 -310.288 
6595 1740 70 15.9994 -0.8476 328.087 -180.029 -310.76 
40 3 58 1.008 0.417 371.826 -215.948 -218.098 
37 3 67 15.9994 -0.631 371.87 -216.931 -218.243 
7760 2129 71 1.008 0.4238 280.028 -130.607 -76.2268 
6233 1620 71 1.008 0.4238 278.541 -127.17 -173.154 
3408 678 71 1.008 0.4238 324.816 -176.672 -223.417 
3409 678 70 15.9994 -0.8476 325.292 -177.114 -224.177 
1586 114 67 15.9994 -0.631 324.302 -171.132 -224.861 
6235 1620 70 15.9994 -0.8476 279.003 -126.324 -173.42 
3407 678 71 1.008 0.4238 326.274 -177.13 -223.99 
3522 716 71 1.008 0.4238 374.606 7.86634 -219.699 
3005 544 71 1.008 0.4238 189.48 -222.992 -269.408 
3006 544 71 1.008 0.4238 190.583 -223.941 -268.665 
489 35 21 1.008 0.398 277.889 -177.103 -272.271 
5768 1465 71 1.008 0.4238 234.474 -174.481 -176.609 
1587 114 20 1.008 0.032 324.545 -172.762 -223.603 
5770 1465 70 15.9994 -0.8476 234.897 -174.963 -175.842 
5769 1465 71 1.008 0.4238 234.191 -175.436 -175.315 
1583 114 64 12.011 0.158 324.943 -172.355 -224.46 
1588 114 20 1.008 0.032 324.888 -173.032 -225.301 
9564 2730 71 1.008 0.4238 332.31 -267.39 -356.652 
1590 114 20 1.008 0.031 326.409 -171.706 -223.063 
1595 114 21 1.008 0.398 327.321 -173.342 -225.279 